 Entering Gaussian System, Link 0=g16
 Initial command:
 /share/software/user/restricted/gaussian/g16.B01/l1.exe "/scratch/users/jennxu23/SyntheMol_private/scripts/gaussian/Gau-3361.inp" -scrdir="/scratch/users/jennxu23/SyntheMol_private/scripts/gaussian/"
 Entering Link 1 = /share/software/user/restricted/gaussian/g16.B01/l1.exe PID=      3364.
  
 Copyright (c) 1988-2017, Gaussian, Inc.  All Rights Reserved.
  
 This is part of the Gaussian(R) 16 program.  It is based on
 the Gaussian(R) 09 system (copyright 2009, Gaussian, Inc.),
 the Gaussian(R) 03 system (copyright 2003, Gaussian, Inc.),
 the Gaussian(R) 98 system (copyright 1998, Gaussian, Inc.),
 the Gaussian(R) 94 system (copyright 1995, Gaussian, Inc.),
 the Gaussian 92(TM) system (copyright 1992, Gaussian, Inc.),
 the Gaussian 90(TM) system (copyright 1990, Gaussian, Inc.),
 the Gaussian 88(TM) system (copyright 1988, Gaussian, Inc.),
 the Gaussian 86(TM) system (copyright 1986, Carnegie Mellon
 University), and the Gaussian 82(TM) system (copyright 1983,
 Carnegie Mellon University). Gaussian is a federally registered
 trademark of Gaussian, Inc.
  
 This software contains proprietary and confidential information,
 including trade secrets, belonging to Gaussian, Inc.
  
 This software is provided under written license and may be
 used, copied, transmitted, or stored only in accord with that
 written license.
  
 The following legend is applicable only to US Government
 contracts under FAR:
  
                    RESTRICTED RIGHTS LEGEND
  
 Use, reproduction and disclosure by the US Government is
 subject to restrictions as set forth in subparagraphs (a)
 and (c) of the Commercial Computer Software - Restricted
 Rights clause in FAR 52.227-19.
  
 Gaussian, Inc.
 340 Quinnipiac St., Bldg. 40, Wallingford CT 06492
  
  
 ---------------------------------------------------------------
 Warning -- This program may not be used in any manner that
 competes with the business of Gaussian, Inc. or will provide
 assistance to any competitor of Gaussian, Inc.  The licensee
 of this program is prohibited from giving any competitor of
 Gaussian, Inc. access to this program.  By using this program,
 the user acknowledges that Gaussian, Inc. is engaged in the
 business of creating and licensing software in the field of
 computational chemistry and represents and warrants to the
 licensee that it is not a competitor of Gaussian, Inc. and that
 it will not use this program in any manner prohibited above.
 ---------------------------------------------------------------
  

 Cite this work as:
 Gaussian 16, Revision B.01,
 M. J. Frisch, G. W. Trucks, H. B. Schlegel, G. E. Scuseria, 
 M. A. Robb, J. R. Cheeseman, G. Scalmani, V. Barone, 
 G. A. Petersson, H. Nakatsuji, X. Li, M. Caricato, A. V. Marenich, 
 J. Bloino, B. G. Janesko, R. Gomperts, B. Mennucci, H. P. Hratchian, 
 J. V. Ortiz, A. F. Izmaylov, J. L. Sonnenberg, D. Williams-Young, 
 F. Ding, F. Lipparini, F. Egidi, J. Goings, B. Peng, A. Petrone, 
 T. Henderson, D. Ranasinghe, V. G. Zakrzewski, J. Gao, N. Rega, 
 G. Zheng, W. Liang, M. Hada, M. Ehara, K. Toyota, R. Fukuda, 
 J. Hasegawa, M. Ishida, T. Nakajima, Y. Honda, O. Kitao, H. Nakai, 
 T. Vreven, K. Throssell, J. A. Montgomery, Jr., J. E. Peralta, 
 F. Ogliaro, M. J. Bearpark, J. J. Heyd, E. N. Brothers, K. N. Kudin, 
 V. N. Staroverov, T. A. Keith, R. Kobayashi, J. Normand, 
 K. Raghavachari, A. P. Rendell, J. C. Burant, S. S. Iyengar, 
 J. Tomasi, M. Cossi, J. M. Millam, M. Klene, C. Adamo, R. Cammi, 
 J. W. Ochterski, R. L. Martin, K. Morokuma, O. Farkas, 
 J. B. Foresman, and D. J. Fox, Gaussian, Inc., Wallingford CT, 2016.
 
 ******************************************
 Gaussian 16:  ES64L-G16RevB.01 20-Dec-2017
                30-Jan-2024 
 ******************************************
 %Mem=8GB
 %CPU=8,10,12-15,17,19
 SetSPE:  set environment variable "MP_BIND" = "yes"
 SetSPE:  set environment variable "MP_BLIST" = "8,10,12,13,14,15,17,19"
 Will use up to    8 processors via shared memory.
 %GPUCPU=0=8
 Will use    1 GPUs:
 Thread  CPU   GPU
      0    8     0
      1   10    -1
      2   12    -1
      3   13    -1
      4   14    -1
      5   15    -1
      6   17    -1
      7   19    -1
 SetGPE:  set environment variable "MP_BIND" = "yes"
 SetGPE:  set environment variable "MP_BLIST" = "8,10,12,13,14,15,17,19"
 Properties for Device   0
 Minimum vector length:                              32
 Maximum vector length:                            1024
 Number of SMPs:                                     56
 Maximum number of threads per SMP:                2048
 Number of ASync Engines:                             2
 Memory:                                           1385447424
   1246902681 words of memory will be used on each GPU.
 ----------------------------------------------------------------------
 #p b3lyp/3-21G* opt=(calcfc,ts,noeigen,maxcycle=1000) scrf=(solvent=wa
 ter) td=(singlets,nstates=5)
 ----------------------------------------------------------------------
 1/5=1,6=1000,10=4,11=1,18=20,26=3,38=1/1,3;
 2/9=110,12=2,17=6,18=5,40=1/2;
 3/5=5,7=1,11=9,25=1,30=1,70=2201,71=2,72=1,74=-5,140=1/1,2,3,8;
 4//1;
 5/5=2,38=5,53=1/2;
 8/6=1,10=1,108=5/1;
 9/15=3,41=5,42=1,48=1,70=2/14;
 10/5=2004,20=4/2;
 11/6=1,8=1,12=-1,16=1,42=3/1,2,10;
 10/6=3,21=1/2,14;
 6/7=2,8=2,9=2,10=2/1;
 7/10=1,12=6,13=8,18=20,25=1,44=2/1,2,3,16;
 1/5=1,6=1000,10=4,11=1,18=20,26=3/3(2);
 2/9=110/2;
 99//99;
 2/9=110/2;
 3/5=5,7=1,11=9,25=1,30=1,70=2205,71=1,72=1,74=-5/1,2,3,8;
 4/5=5,16=3,69=1/1;
 5/5=2,38=5,53=1/2;
 8/6=1,10=1,108=5/1;
 9/15=2,41=5,42=1,48=1,49=4,70=2/14;
 10/5=4/2;
 7/12=6,13=5/1,2,3,16;
 1/5=1,6=1000,11=1,18=20,26=3/3(-8);
 2/9=110/2;
 6/7=2,8=2,9=2,10=2/1;
 99/9=10/99;
 Leave Link    1 at Tue Jan 30 17:41:18 2024, MaxMem=  1073741824 cpu:              21.4 elap:               2.9
 (Enter /share/software/user/restricted/gaussian/g16.B01/l101.exe)
 -----
 1_top
 -----
 Symbolic Z-matrix:
 Charge =  0 Multiplicity = 1
 N                    -4.55145  -1.67738  -1.08251 
 C                    -4.36461  -0.55073  -0.36862 
 N                    -5.34321   0.21548   0.10656 
 O                    -4.70781   1.26395   0.75628 
 N                    -3.3234    1.13716   0.69098 
 C                    -3.11645   0.00592  -0.00348 
 C                    -1.77563  -0.50284  -0.28281 
 O                    -1.60857  -1.57204  -0.86194 
 N                    -0.77591   0.33686   0.18148 
 C                     0.62004   0.17266   0.0921 
 C                     1.23647  -0.92161  -0.52151 
 C                     2.63312  -1.04087  -0.58611 
 C                     3.38753  -0.01777  -0.01039 
 N                     4.74031   0.17136   0.09787 
 N                     5.08657   1.30473   0.73494 
 C                     3.91065   1.85799   1.04326 
 C                     2.81229   1.08446   0.60722 
 C                     1.41011   1.18674   0.6621 
 H                    -3.77694  -2.31977  -1.24592 
 H                    -5.46945  -2.10821  -1.09533 
 H                    -1.11119   1.17516   0.64816 
 H                     0.65396  -1.7201   -0.97228 
 H                     3.09634  -1.89679  -1.06642 
 H                     5.47872  -0.43445  -0.24125 
 H                     3.89905   2.80171   1.57284 
 H                     0.95945   2.04836   1.14477 
 
 ITRead=  0  0  0  0  0  0  0  0  0  0  0  0  0  0  0  0  0  0  0  0
 ITRead=  0  0  0  0  0  0
 MicOpt= -1 -1 -1 -1 -1 -1 -1 -1 -1 -1 -1 -1 -1 -1 -1 -1 -1 -1 -1 -1
 MicOpt= -1 -1 -1 -1 -1 -1
 NAtoms=     26 NQM=       26 NQMF=       0 NMMI=      0 NMMIF=      0
                NMic=       0 NMicF=      0.
                    Isotopes and Nuclear Properties:
 (Nuclear quadrupole moments (NQMom) in fm**2, nuclear magnetic moments (NMagM)
  in nuclear magnetons)

  Atom         1           2           3           4           5           6           7           8           9          10
 IAtWgt=          14          12          14          16          14          12          12          16          14          12
 AtmWgt=  14.0030740  12.0000000  14.0030740  15.9949146  14.0030740  12.0000000  12.0000000  15.9949146  14.0030740  12.0000000
 NucSpn=           2           0           2           0           2           0           0           0           2           0
 AtZEff=  -0.0000000  -0.0000000  -0.0000000  -0.0000000  -0.0000000  -0.0000000  -0.0000000  -0.0000000  -0.0000000  -0.0000000
 NQMom=    2.0440000   0.0000000   2.0440000   0.0000000   2.0440000   0.0000000   0.0000000   0.0000000   2.0440000   0.0000000
 NMagM=    0.4037610   0.0000000   0.4037610   0.0000000   0.4037610   0.0000000   0.0000000   0.0000000   0.4037610   0.0000000
 AtZNuc=   7.0000000   6.0000000   7.0000000   8.0000000   7.0000000   6.0000000   6.0000000   8.0000000   7.0000000   6.0000000

  Atom        11          12          13          14          15          16          17          18          19          20
 IAtWgt=          12          12          12          14          14          12          12          12           1           1
 AtmWgt=  12.0000000  12.0000000  12.0000000  14.0030740  14.0030740  12.0000000  12.0000000  12.0000000   1.0078250   1.0078250
 NucSpn=           0           0           0           2           2           0           0           0           1           1
 AtZEff=  -0.0000000  -0.0000000  -0.0000000  -0.0000000  -0.0000000  -0.0000000  -0.0000000  -0.0000000  -0.0000000  -0.0000000
 NQMom=    0.0000000   0.0000000   0.0000000   2.0440000   2.0440000   0.0000000   0.0000000   0.0000000   0.0000000   0.0000000
 NMagM=    0.0000000   0.0000000   0.0000000   0.4037610   0.4037610   0.0000000   0.0000000   0.0000000   2.7928460   2.7928460
 AtZNuc=   6.0000000   6.0000000   6.0000000   7.0000000   7.0000000   6.0000000   6.0000000   6.0000000   1.0000000   1.0000000

  Atom        21          22          23          24          25          26
 IAtWgt=           1           1           1           1           1           1
 AtmWgt=   1.0078250   1.0078250   1.0078250   1.0078250   1.0078250   1.0078250
 NucSpn=           1           1           1           1           1           1
 AtZEff=  -0.0000000  -0.0000000  -0.0000000  -0.0000000  -0.0000000  -0.0000000
 NQMom=    0.0000000   0.0000000   0.0000000   0.0000000   0.0000000   0.0000000
 NMagM=    2.7928460   2.7928460   2.7928460   2.7928460   2.7928460   2.7928460
 AtZNuc=   1.0000000   1.0000000   1.0000000   1.0000000   1.0000000   1.0000000
 Leave Link  101 at Tue Jan 30 17:41:20 2024, MaxMem=  1073741824 cpu:               3.4 elap:               0.5
 (Enter /share/software/user/restricted/gaussian/g16.B01/l103.exe)

 GradGradGradGradGradGradGradGradGradGradGradGradGradGradGradGradGradGrad
 Berny optimization.
 Initialization pass.
                           ----------------------------
                           !    Initial Parameters    !
                           ! (Angstroms and Degrees)  !
 --------------------------                            --------------------------
 ! Name  Definition              Value          Derivative Info.                !
 --------------------------------------------------------------------------------
 ! R1    R(1,2)                  1.3468         calculate D2E/DX2 analytically  !
 ! R2    R(1,19)                 1.0194         calculate D2E/DX2 analytically  !
 ! R3    R(1,20)                 1.0142         calculate D2E/DX2 analytically  !
 ! R4    R(2,3)                  1.3306         calculate D2E/DX2 analytically  !
 ! R5    R(2,6)                  1.4146         calculate D2E/DX2 analytically  !
 ! R6    R(3,4)                  1.3875         calculate D2E/DX2 analytically  !
 ! R7    R(4,5)                  1.3917         calculate D2E/DX2 analytically  !
 ! R8    R(5,6)                  1.3434         calculate D2E/DX2 analytically  !
 ! R9    R(6,7)                  1.461          calculate D2E/DX2 analytically  !
 ! R10   R(7,8)                  1.2274         calculate D2E/DX2 analytically  !
 ! R11   R(7,9)                  1.3857         calculate D2E/DX2 analytically  !
 ! R12   R(9,10)                 1.4084         calculate D2E/DX2 analytically  !
 ! R13   R(9,21)                 1.0163         calculate D2E/DX2 analytically  !
 ! R14   R(10,11)                1.3978         calculate D2E/DX2 analytically  !
 ! R15   R(10,18)                1.4062         calculate D2E/DX2 analytically  !
 ! R16   R(11,12)                1.4032         calculate D2E/DX2 analytically  !
 ! R17   R(11,22)                1.0863         calculate D2E/DX2 analytically  !
 ! R18   R(12,13)                1.3955         calculate D2E/DX2 analytically  !
 ! R19   R(12,23)                1.0853         calculate D2E/DX2 analytically  !
 ! R20   R(13,14)                1.3702         calculate D2E/DX2 analytically  !
 ! R21   R(13,17)                1.3883         calculate D2E/DX2 analytically  !
 ! R22   R(14,15)                1.3455         calculate D2E/DX2 analytically  !
 ! R23   R(14,24)                1.0135         calculate D2E/DX2 analytically  !
 ! R24   R(15,16)                1.3356         calculate D2E/DX2 analytically  !
 ! R25   R(16,17)                1.4124         calculate D2E/DX2 analytically  !
 ! R26   R(16,25)                1.0822         calculate D2E/DX2 analytically  !
 ! R27   R(17,18)                1.407          calculate D2E/DX2 analytically  !
 ! R28   R(18,26)                1.0856         calculate D2E/DX2 analytically  !
 ! A1    A(2,1,19)             120.4451         calculate D2E/DX2 analytically  !
 ! A2    A(2,1,20)             119.1865         calculate D2E/DX2 analytically  !
 ! A3    A(19,1,20)            114.7075         calculate D2E/DX2 analytically  !
 ! A4    A(1,2,3)              124.6784         calculate D2E/DX2 analytically  !
 ! A5    A(1,2,6)              126.0436         calculate D2E/DX2 analytically  !
 ! A6    A(3,2,6)              109.278          calculate D2E/DX2 analytically  !
 ! A7    A(2,3,4)              105.4001         calculate D2E/DX2 analytically  !
 ! A8    A(3,4,5)              111.3905         calculate D2E/DX2 analytically  !
 ! A9    A(4,5,6)              104.7263         calculate D2E/DX2 analytically  !
 ! A10   A(2,6,5)              109.1993         calculate D2E/DX2 analytically  !
 ! A11   A(2,6,7)              128.5623         calculate D2E/DX2 analytically  !
 ! A12   A(5,6,7)              122.2365         calculate D2E/DX2 analytically  !
 ! A13   A(6,7,8)              121.2284         calculate D2E/DX2 analytically  !
 ! A14   A(6,7,9)              112.7696         calculate D2E/DX2 analytically  !
 ! A15   A(8,7,9)              125.9998         calculate D2E/DX2 analytically  !
 ! A16   A(7,9,10)             128.548          calculate D2E/DX2 analytically  !
 ! A17   A(7,9,21)             114.5622         calculate D2E/DX2 analytically  !
 ! A18   A(10,9,21)            116.8894         calculate D2E/DX2 analytically  !
 ! A19   A(9,10,11)            123.7942         calculate D2E/DX2 analytically  !
 ! A20   A(9,10,18)            116.5555         calculate D2E/DX2 analytically  !
 ! A21   A(11,10,18)           119.6502         calculate D2E/DX2 analytically  !
 ! A22   A(10,11,12)           121.7132         calculate D2E/DX2 analytically  !
 ! A23   A(10,11,22)           121.4057         calculate D2E/DX2 analytically  !
 ! A24   A(12,11,22)           116.8811         calculate D2E/DX2 analytically  !
 ! A25   A(11,12,13)           117.1791         calculate D2E/DX2 analytically  !
 ! A26   A(11,12,23)           120.8116         calculate D2E/DX2 analytically  !
 ! A27   A(13,12,23)           122.0093         calculate D2E/DX2 analytically  !
 ! A28   A(12,13,14)           131.8761         calculate D2E/DX2 analytically  !
 ! A29   A(12,13,17)           122.7956         calculate D2E/DX2 analytically  !
 ! A30   A(14,13,17)           105.3282         calculate D2E/DX2 analytically  !
 ! A31   A(13,14,15)           114.0639         calculate D2E/DX2 analytically  !
 ! A32   A(13,14,24)           127.6141         calculate D2E/DX2 analytically  !
 ! A33   A(15,14,24)           118.3221         calculate D2E/DX2 analytically  !
 ! A34   A(14,15,16)           103.3945         calculate D2E/DX2 analytically  !
 ! A35   A(15,16,17)           112.7391         calculate D2E/DX2 analytically  !
 ! A36   A(15,16,25)           118.9215         calculate D2E/DX2 analytically  !
 ! A37   A(17,16,25)           128.3394         calculate D2E/DX2 analytically  !
 ! A38   A(13,17,16)           104.4744         calculate D2E/DX2 analytically  !
 ! A39   A(13,17,18)           119.2104         calculate D2E/DX2 analytically  !
 ! A40   A(16,17,18)           136.3153         calculate D2E/DX2 analytically  !
 ! A41   A(10,18,17)           119.4515         calculate D2E/DX2 analytically  !
 ! A42   A(10,18,26)           121.2891         calculate D2E/DX2 analytically  !
 ! A43   A(17,18,26)           119.2594         calculate D2E/DX2 analytically  !
 ! D1    D(19,1,2,3)          -166.9146         calculate D2E/DX2 analytically  !
 ! D2    D(19,1,2,6)            13.0165         calculate D2E/DX2 analytically  !
 ! D3    D(20,1,2,3)           -14.8288         calculate D2E/DX2 analytically  !
 ! D4    D(20,1,2,6)           165.1023         calculate D2E/DX2 analytically  !
 ! D5    D(1,2,3,4)           -179.314          calculate D2E/DX2 analytically  !
 ! D6    D(6,2,3,4)              0.7451         calculate D2E/DX2 analytically  !
 ! D7    D(1,2,6,5)            179.309          calculate D2E/DX2 analytically  !
 ! D8    D(1,2,6,7)             -1.1753         calculate D2E/DX2 analytically  !
 ! D9    D(3,2,6,5)             -0.7511         calculate D2E/DX2 analytically  !
 ! D10   D(3,2,6,7)            178.7647         calculate D2E/DX2 analytically  !
 ! D11   D(2,3,4,5)             -0.5131         calculate D2E/DX2 analytically  !
 ! D12   D(3,4,5,6)              0.0587         calculate D2E/DX2 analytically  !
 ! D13   D(4,5,6,2)              0.4009         calculate D2E/DX2 analytically  !
 ! D14   D(4,5,6,7)           -179.1514         calculate D2E/DX2 analytically  !
 ! D15   D(2,6,7,8)             -3.0819         calculate D2E/DX2 analytically  !
 ! D16   D(2,6,7,9)            177.4247         calculate D2E/DX2 analytically  !
 ! D17   D(5,6,7,8)            176.3774         calculate D2E/DX2 analytically  !
 ! D18   D(5,6,7,9)             -3.116          calculate D2E/DX2 analytically  !
 ! D19   D(6,7,9,10)          -179.9906         calculate D2E/DX2 analytically  !
 ! D20   D(6,7,9,21)             0.2453         calculate D2E/DX2 analytically  !
 ! D21   D(8,7,9,10)             0.5449         calculate D2E/DX2 analytically  !
 ! D22   D(8,7,9,21)          -179.2193         calculate D2E/DX2 analytically  !
 ! D23   D(7,9,10,11)            0.4426         calculate D2E/DX2 analytically  !
 ! D24   D(7,9,10,18)         -179.6147         calculate D2E/DX2 analytically  !
 ! D25   D(21,9,10,11)        -179.7979         calculate D2E/DX2 analytically  !
 ! D26   D(21,9,10,18)           0.1448         calculate D2E/DX2 analytically  !
 ! D27   D(9,10,11,12)         179.9802         calculate D2E/DX2 analytically  !
 ! D28   D(9,10,11,22)           0.0486         calculate D2E/DX2 analytically  !
 ! D29   D(18,10,11,12)          0.0393         calculate D2E/DX2 analytically  !
 ! D30   D(18,10,11,22)       -179.8924         calculate D2E/DX2 analytically  !
 ! D31   D(9,10,18,17)        -179.9911         calculate D2E/DX2 analytically  !
 ! D32   D(9,10,18,26)           0.0273         calculate D2E/DX2 analytically  !
 ! D33   D(11,10,18,17)         -0.046          calculate D2E/DX2 analytically  !
 ! D34   D(11,10,18,26)        179.9724         calculate D2E/DX2 analytically  !
 ! D35   D(10,11,12,13)         -0.01           calculate D2E/DX2 analytically  !
 ! D36   D(10,11,12,23)       -179.9827         calculate D2E/DX2 analytically  !
 ! D37   D(22,11,12,13)        179.9246         calculate D2E/DX2 analytically  !
 ! D38   D(22,11,12,23)         -0.0481         calculate D2E/DX2 analytically  !
 ! D39   D(11,12,13,14)       -179.9893         calculate D2E/DX2 analytically  !
 ! D40   D(11,12,13,17)         -0.0125         calculate D2E/DX2 analytically  !
 ! D41   D(23,12,13,14)         -0.0169         calculate D2E/DX2 analytically  !
 ! D42   D(23,12,13,17)        179.9599         calculate D2E/DX2 analytically  !
 ! D43   D(12,13,14,15)       -179.9983         calculate D2E/DX2 analytically  !
 ! D44   D(12,13,14,24)          0.0            calculate D2E/DX2 analytically  !
 ! D45   D(17,13,14,15)          0.022          calculate D2E/DX2 analytically  !
 ! D46   D(17,13,14,24)       -179.9798         calculate D2E/DX2 analytically  !
 ! D47   D(12,13,17,16)       -179.9911         calculate D2E/DX2 analytically  !
 ! D48   D(12,13,17,18)          0.0052         calculate D2E/DX2 analytically  !
 ! D49   D(14,13,17,16)         -0.009          calculate D2E/DX2 analytically  !
 ! D50   D(14,13,17,18)        179.9873         calculate D2E/DX2 analytically  !
 ! D51   D(13,14,15,16)         -0.025          calculate D2E/DX2 analytically  !
 ! D52   D(24,14,15,16)        179.9766         calculate D2E/DX2 analytically  !
 ! D53   D(14,15,16,17)          0.0184         calculate D2E/DX2 analytically  !
 ! D54   D(14,15,16,25)       -179.9844         calculate D2E/DX2 analytically  !
 ! D55   D(15,16,17,13)         -0.006          calculate D2E/DX2 analytically  !
 ! D56   D(15,16,17,18)        179.9986         calculate D2E/DX2 analytically  !
 ! D57   D(25,16,17,13)        179.9971         calculate D2E/DX2 analytically  !
 ! D58   D(25,16,17,18)          0.0018         calculate D2E/DX2 analytically  !
 ! D59   D(13,17,18,10)          0.0243         calculate D2E/DX2 analytically  !
 ! D60   D(13,17,18,26)       -179.9937         calculate D2E/DX2 analytically  !
 ! D61   D(16,17,18,10)       -179.9808         calculate D2E/DX2 analytically  !
 ! D62   D(16,17,18,26)          0.0012         calculate D2E/DX2 analytically  !
 --------------------------------------------------------------------------------
 Trust Radius=3.00D-01 FncErr=1.00D-07 GrdErr=1.00D-06 EigMax=2.50D+02 EigMin=1.00D-04
 Number of steps in this run=    156 maximum allowed number of steps=    156.
 Search for a saddle point of order  1.
 GradGradGradGradGradGradGradGradGradGradGradGradGradGradGradGradGradGrad

 Leave Link  103 at Tue Jan 30 17:41:20 2024, MaxMem=  1073741824 cpu:               0.2 elap:               0.1
 (Enter /share/software/user/restricted/gaussian/g16.B01/l202.exe)
                          Input orientation:                          
 ---------------------------------------------------------------------
 Center     Atomic      Atomic             Coordinates (Angstroms)
 Number     Number       Type             X           Y           Z
 ---------------------------------------------------------------------
      1          7           0       -4.551448   -1.677376   -1.082511
      2          6           0       -4.364612   -0.550728   -0.368618
      3          7           0       -5.343209    0.215478    0.106556
      4          8           0       -4.707813    1.263950    0.756276
      5          7           0       -3.323400    1.137158    0.690984
      6          6           0       -3.116447    0.005918   -0.003478
      7          6           0       -1.775627   -0.502839   -0.282809
      8          8           0       -1.608571   -1.572037   -0.861936
      9          7           0       -0.775908    0.336860    0.181481
     10          6           0        0.620044    0.172662    0.092097
     11          6           0        1.236472   -0.921613   -0.521508
     12          6           0        2.633122   -1.040873   -0.586112
     13          6           0        3.387528   -0.017767   -0.010389
     14          7           0        4.740307    0.171361    0.097868
     15          7           0        5.086567    1.304732    0.734944
     16          6           0        3.910651    1.857991    1.043262
     17          6           0        2.812290    1.084464    0.607223
     18          6           0        1.410110    1.186745    0.662101
     19          1           0       -3.776940   -2.319766   -1.245925
     20          1           0       -5.469446   -2.108212   -1.095335
     21          1           0       -1.111185    1.175157    0.648164
     22          1           0        0.653957   -1.720095   -0.972283
     23          1           0        3.096337   -1.896790   -1.066415
     24          1           0        5.478715   -0.434448   -0.241245
     25          1           0        3.899053    2.801706    1.572840
     26          1           0        0.959452    2.048361    1.144768
 ---------------------------------------------------------------------
                    Distance matrix (angstroms):
                    1          2          3          4          5
     1  N    0.000000
     2  C    1.346806   0.000000
     3  N    2.371427   1.330607   0.000000
     4  O    3.472317   2.162459   1.387500   0.000000
     5  N    3.546123   2.248519   2.295796   1.391739   0.000000
     6  C    2.461101   1.414602   2.239306   2.166175   1.343433
     7  C    3.118372   2.590850   3.659949   3.577562   2.456311
     8  O    2.953011   2.980302   4.252142   4.501858   3.562575
     9  N    4.462009   3.737542   4.569529   4.080412   2.718417
    10  C    5.616642   5.057900   5.963424   5.478877   4.103617
    11  C    5.863950   5.615432   6.706686   6.460954   5.147923
    12  C    7.229771   7.018250   8.104324   7.810476   6.469540
    13  C    8.181142   7.778693   8.734635   8.231957   6.845607
    14  N    9.547137   9.145413  10.083617   9.533846   8.142968
    15  N   10.251216   9.694605  10.505312   9.794487   8.411751
    16  C    9.414076   8.733574   9.445062   8.643677   7.278406
    17  C    8.044103   7.425231   8.216932   7.523721   6.136488
    18  C    6.840105   6.117893   6.845386   6.119135   4.733858
    19  H    1.019427   2.060223   3.272593   4.209317   3.988438
    20  H    1.014152   2.043167   2.619163   3.921737   4.281224
    21  H    4.792451   3.820643   4.373140   3.599347   2.212956
    22  H    5.206747   5.188243   6.393461   6.375030   5.172014
    23  H    7.650948   7.613446   8.778581   8.614942   7.314801
    24  H   10.141833   9.844838  10.847001  10.375209   8.989785
    25  H    9.925927   9.126677   9.708655   8.781208   7.464062
    26  H    7.015119   6.114839   6.645365   5.734467   4.402162
                    6          7          8          9         10
     6  C    0.000000
     7  C    1.461047   0.000000
     8  O    2.345332   1.227388   0.000000
     9  N    2.371046   1.385676   2.329364   0.000000
    10  C    3.741431   2.517160   2.986784   1.408414   0.000000
    11  C    4.480689   3.050424   2.938232   2.475403   1.397831
    12  C    5.873056   4.451802   4.283711   3.756173   2.446450
    13  C    6.504022   5.193041   5.301122   4.182914   2.775921
    14  N    7.859149   6.561773   6.653489   5.519330   4.120268
    15  N    8.337963   7.168880   7.459939   5.967554   4.652382
    16  C    7.342066   6.298074   6.771756   5.002033   3.817478
    17  C    6.056909   4.935653   5.362783   3.689896   2.429544
    18  C    4.725153   3.727797   4.364173   2.394154   1.406227
    19  H    2.718222   2.869507   2.325590   4.254567   5.228380
    20  H    3.346386   4.108737   3.904909   5.444073   6.610164
    21  H    2.410982   2.030730   3.174094   1.016340   2.076382
    22  H    4.258363   2.803563   2.270051   2.758034   2.171770
    23  H    6.583982   5.127687   4.720533   4.641198   3.428820
    24  H    8.609720   7.254784   7.204790   6.316164   4.907789
    25  H    7.714820   6.823888   7.442559   5.465035   4.456049
    26  H    4.701382   4.003405   4.871230   2.620807   2.177512
                   11         12         13         14         15
    11  C    0.000000
    12  C    1.403221   0.000000
    13  C    2.388561   1.395468   0.000000
    14  N    3.722242   2.525385   1.370219   0.000000
    15  N    4.621528   3.642313   2.278433   1.345471   0.000000
    16  C    4.162443   3.562351   2.214114   2.104001   1.335640
    17  C    2.789549   2.444015   1.388257   2.193274   2.288485
    18  C    2.424098   2.831267   2.411073   3.526978   3.679070
    19  H    5.254893   6.569613   7.625965   8.975243   9.778679
    20  H    6.834224   8.188414   9.164773  10.528971  11.243999
    21  H    3.357986   4.522617   4.700551   5.962415   6.199714
    22  H    1.086322   2.127808   3.360889   4.628292   5.631361
    23  H    2.169561   1.085290   2.175020   2.887117   4.177997
    24  H    4.279312   2.929861   2.144757   1.013533   2.032603
    25  H    5.033760   4.585746   3.273789   3.130809   2.086430
    26  H    3.416718   3.916693   3.390992   4.349022   4.213552
                   16         17         18         19         20
    16  C    0.000000
    17  C    1.412398   0.000000
    18  C    2.616975   1.406976   0.000000
    19  H    9.043952   7.644664   6.545354   0.000000
    20  H   10.406275   9.037645   7.827746   1.712311   0.000000
    21  H    5.083424   3.924737   2.521361   4.786262   5.728415
    22  H    5.241295   3.875409   3.419458   4.479658   6.136924
    23  H    4.383175   3.430689   3.916544   6.888618   8.568440
    24  H    3.060075   3.183837   4.471895   9.498998  11.108249
    25  H    1.082214   2.249975   3.103608   9.648615  10.908493
    26  H    2.959074   2.156632   1.085561   6.872361   7.976583
                   21         22         23         24         25
    21  H    0.000000
    22  H    3.758199   0.000000
    23  H    5.484513   2.450572   0.000000
    24  H    6.841686   5.046345   2.914632   0.000000
    25  H    5.348193   6.120048   5.448476   4.032237   0.000000
    26  H    2.301442   4.333185   5.001982   5.339393   3.064642
                   26
    26  H    0.000000
 Stoichiometry    C10H8N6O2
 Framework group  C1[X(C10H8N6O2)]
 Deg. of freedom    72
 Full point group                 C1      NOp   1
 Largest Abelian subgroup         C1      NOp   1
 Largest concise Abelian subgroup C1      NOp   1
                         Standard orientation:                         
 ---------------------------------------------------------------------
 Center     Atomic      Atomic             Coordinates (Angstroms)
 Number     Number       Type             X           Y           Z
 ---------------------------------------------------------------------
      1          7           0       -4.489143    1.593226    0.094265
      2          6           0       -4.146568    0.291944    0.037738
      3          7           0       -5.012158   -0.718190    0.007796
      4          8           0       -4.235910   -1.867545   -0.031935
      5          7           0       -2.877925   -1.562952   -0.038043
      6          6           0       -2.828773   -0.220945   -0.000488
      7          6           0       -1.565663    0.513279   -0.011682
      8          8           0       -1.542987    1.740055   -0.043144
      9          7           0       -0.459873   -0.321608    0.005280
     10          6           0        0.904334    0.028473    0.001392
     11          6           0        1.368657    1.346859   -0.012517
     12          6           0        2.739603    1.646070   -0.015460
     13          6           0        3.627071    0.569226   -0.003668
     14          7           0        4.996103    0.512224   -0.002581
     15          7           0        5.493134   -0.738004    0.010886
     16          6           0        4.400029   -1.505458    0.019228
     17          6           0        3.204699   -0.753139    0.010756
     18          6           0        1.825956   -1.033571    0.013654
     19          1           0       -3.795164    2.318307   -0.084291
     20          1           0       -5.445413    1.862206   -0.109943
     21          1           0       -0.679780   -1.313778    0.018925
     22          1           0        0.682164    2.188738   -0.020459
     23          1           0        3.083955    2.675227   -0.026040
     24          1           0        5.647572    1.288609   -0.010630
     25          1           0        4.516009   -2.581373    0.031092
     26          1           0        1.494793   -2.067323    0.025034
 ---------------------------------------------------------------------
 Rotational constants (GHZ):           1.4900038           0.1702922           0.1528486
 Leave Link  202 at Tue Jan 30 17:41:21 2024, MaxMem=  1073741824 cpu:               0.1 elap:               0.1
 (Enter /share/software/user/restricted/gaussian/g16.B01/l301.exe)
 Standard basis: 3-21G* (6D, 7F)
 Ernie: Thresh=  0.10000D-02 Tol=  0.10000D-05 Strict=F.
 There are   178 symmetry adapted cartesian basis functions of A   symmetry.
 There are   178 symmetry adapted basis functions of A   symmetry.
   178 basis functions,   294 primitive gaussians,   178 cartesian basis functions
    63 alpha electrons       63 beta electrons
       nuclear repulsion energy      1197.2437272558 Hartrees.
 IExCor=  402 DFT=T Ex+Corr=B3LYP ExCW=0 ScaHFX=  0.200000
 ScaDFX=  0.800000  0.720000  1.000000  0.810000 ScalE2=  1.000000  1.000000
 IRadAn=      5 IRanWt=     -1 IRanGd=            0 ICorTp=0 IEmpDi=  4
 NAtoms=   26 NActive=   26 NUniq=   26 SFac= 1.00D+00 NAtFMM=   60 NAOKFM=F Big=F
 Integral buffers will be    131072 words long.
 Regular integral format.
 Two-electron integral symmetry is turned on.
 Force inversion solution in PCM.
 ------------------------------------------------------------------------------
 Polarizable Continuum Model (PCM)
 =================================
 Model                : PCM.
 Atomic radii         : UFF (Universal Force Field).
 Polarization charges : Total charges.
 Charge compensation  : None.
 Solution method      : Matrix inversion.
 Cavity type          : Scaled VdW (van der Waals Surface) (Alpha=1.100).
 Cavity algorithm     : GePol (No added spheres)
                        Default sphere list used, NSphG=   26.
                        Lebedev-Laikov grids with approx.  5.0 points / Ang**2.
                        Smoothing algorithm: York/Karplus (Gamma=1.0000).
                        Polarization charges: spherical gaussians, with
                                              point-specific exponents (IZeta= 3).
                        Self-potential: point-specific (ISelfS= 7).
                        Self-field    : sphere-specific E.n sum rule (ISelfD= 2).
 1st derivatives      : Analytical E(r).r(x)/FMM algorithm (CHGder, D1EAlg=3).
                        Cavity 1st derivative terms included.
 2nd derivatives      : Analytical E(r).r(xy)/FMM algorithm (CHGder, D2EAlg=3).
                        Cavity 2nd derivative terms included.
 Solvent              : Water, Eps=  78.355300 Eps(inf)=   1.777849
 ------------------------------------------------------------------------------
 GePol: Number of generator spheres                  =      26
 GePol: Total number of spheres                      =      26
 GePol: Number of exposed spheres                    =      26 (100.00%)
 GePol: Number of points                             =    2237
 GePol: Average weight of points                     =       0.13
 GePol: Minimum weight of points                     =   0.12D-10
 GePol: Maximum weight of points                     =    0.20577
 GePol: Number of points with low weight             =     138
 GePol: Fraction of low-weight points (<1% of avg)   =       6.17%
 GePol: Cavity surface area                          =    286.439 Ang**2
 GePol: Cavity volume                                =    303.452 Ang**3
 Leave Link  301 at Tue Jan 30 17:41:22 2024, MaxMem=  1073741824 cpu:               1.1 elap:               0.2
 (Enter /share/software/user/restricted/gaussian/g16.B01/l302.exe)
 NPDir=0 NMtPBC=     1 NCelOv=     1 NCel=       1 NClECP=     1 NCelD=      1
         NCelK=      1 NCelE2=     1 NClLst=     1 CellRange=     0.0.
 One-electron integrals computed using PRISM.
 One-electron integral symmetry used in STVInt
 NBasis=   178 RedAO= T EigKep=  1.33D-03  NBF=   178
 NBsUse=   178 1.00D-06 EigRej= -1.00D+00 NBFU=   178
 Precomputing XC quadrature grid using
 IXCGrd= 4 IRadAn=           5 IRanWt=          -1 IRanGd=           0 AccXCQ= 0.00D+00.
 Generated NRdTot=       0 NPtTot=           0 NUsed=           0 NTot=          32
 NSgBfM=   174   174   174   174   174 MxSgAt=    26 MxSgA2=    26.
 Leave Link  302 at Tue Jan 30 17:41:23 2024, MaxMem=  1073741824 cpu:               2.6 elap:               0.4
 (Enter /share/software/user/restricted/gaussian/g16.B01/l303.exe)
 DipDrv:  MaxL=1.
 Leave Link  303 at Tue Jan 30 17:41:23 2024, MaxMem=  1073741824 cpu:               0.4 elap:               0.1
 (Enter /share/software/user/restricted/gaussian/g16.B01/l308.exe)
 Leave Link  308 at Tue Jan 30 17:41:24 2024, MaxMem=  1073741824 cpu:               0.4 elap:               0.1
 (Enter /share/software/user/restricted/gaussian/g16.B01/l401.exe)
 ExpMin= 1.83D-01 ExpMax= 3.22D+02 ExpMxC= 3.22D+02 IAcc=3 IRadAn=         5 AccDes= 0.00D+00
 Harris functional with IExCor=  402 and IRadAn=       5 diagonalized for initial guess.
 HarFok:  IExCor=  402 AccDes= 0.00D+00 IRadAn=         5 IDoV= 1 UseB2=F ITyADJ=14
 ICtDFT=  3500011 ScaDFX=  1.000000  1.000000  1.000000  1.000000
 FoFCou: FMM=F IPFlag=           0 FMFlag=      100000 FMFlg1=           0
         NFxFlg=           0 DoJE=T BraDBF=F KetDBF=T FulRan=T
         wScrn=  0.000000 ICntrl=       500 IOpCl=  0 I1Cent=   200000004 NGrid=           0
         NMat0=    1 NMatS0=      1 NMatT0=    0 NMatD0=    1 NMtDS0=    0 NMtDT0=    0
 Petite list used in FoFCou.
 Harris En= -859.861000040307    
 JPrj=0 DoOrth=F DoCkMO=F.
 Leave Link  401 at Tue Jan 30 17:41:26 2024, MaxMem=  1073741824 cpu:               9.3 elap:               1.2
 (Enter /share/software/user/restricted/gaussian/g16.B01/l502.exe)
 Integral symmetry usage will be decided dynamically.
 Closed shell SCF:
 Using DIIS extrapolation, IDIIS=  1040.
 NGot=  1073741824 LenX=  1073674796 LenY=  1073642671
 Requested convergence on RMS density matrix=1.00D-08 within 128 cycles.
 Requested convergence on MAX density matrix=1.00D-06.
 Requested convergence on             energy=1.00D-06.
 No special actions if energy rises.
 Fock matrices will be formed incrementally for  20 cycles.

 Cycle   1  Pass 1  IDiag  1:
 FoFJK:  IHMeth= 1 ICntrl=       0 DoSepK=F KAlg= 0 I1Cent=           0 FoldK=F
 IRaf= 700000000 NMat=       1 IRICut=       1 DoRegI=T DoRafI=F ISym2E= 0 IDoP0=0 IntGTp=1.
 FoFCou: FMM=F IPFlag=           0 FMFlag=      100000 FMFlg1=           0
         NFxFlg=           0 DoJE=F BraDBF=F KetDBF=F FulRan=T
         wScrn=  0.000000 ICntrl=         0 IOpCl=  0 I1Cent=           0 NGrid=           0
         NMat0=    1 NMatS0=      1 NMatT0=    0 NMatD0=    1 NMtDS0=    0 NMtDT0=    0
 Symmetry not used in FoFCou.
 Inv3:  Mode=1 IEnd=    15012507.
 Iteration    1 A*A^-1 deviation from unit magnitude is 4.44D-15 for   2215.
 Iteration    1 A*A^-1 deviation from orthogonality  is 2.92D-15 for   2230   1434.
 Iteration    1 A^-1*A deviation from unit magnitude is 4.44D-15 for   2215.
 Iteration    1 A^-1*A deviation from orthogonality  is 2.27D-14 for   1400   1371.
 E= -859.732212508269    
 DIIS: error= 3.60D-02 at cycle   1 NSaved=   1.
 NSaved= 1 IEnMin= 1 EnMin= -859.732212508269     IErMin= 1 ErrMin= 3.60D-02
 ErrMax= 3.60D-02  0.00D+00 EMaxC= 1.00D-01 BMatC= 2.73D-01 BMatP= 2.73D-01
 IDIUse=3 WtCom= 6.40D-01 WtEn= 3.60D-01
 Coeff-Com:  0.100D+01
 Coeff-En:   0.100D+01
 Coeff:      0.100D+01
 Gap=     0.231 Goal=   None    Shift=    0.000
 GapD=    0.231 DampG=1.000 DampE=0.500 DampFc=0.5000 IDamp=-1.
 Damping current iteration by 5.00D-01
 RMSDP=8.29D-03 MaxDP=1.58D-01              OVMax= 2.73D-01

 Cycle   2  Pass 1  IDiag  1:
 RMSU=  4.14D-03    CP:  1.00D+00
 E= -859.782540990599     Delta-E=       -0.050328482330 Rises=F Damp=T
 DIIS: error= 1.76D-02 at cycle   2 NSaved=   2.
 NSaved= 2 IEnMin= 2 EnMin= -859.782540990599     IErMin= 2 ErrMin= 1.76D-02
 ErrMax= 1.76D-02  0.00D+00 EMaxC= 1.00D-01 BMatC= 5.90D-02 BMatP= 2.73D-01
 IDIUse=3 WtCom= 8.24D-01 WtEn= 1.76D-01
 Coeff-Com:  0.250D+00 0.750D+00
 Coeff-En:   0.392D+00 0.608D+00
 Coeff:      0.275D+00 0.725D+00
 Gap=     0.181 Goal=   None    Shift=    0.000
 RMSDP=2.62D-03 MaxDP=6.08D-02 DE=-5.03D-02 OVMax= 2.56D-01

 Cycle   3  Pass 1  IDiag  1:
 RMSU=  2.27D-03    CP:  1.00D+00  6.81D-01
 E= -859.947024113823     Delta-E=       -0.164483123224 Rises=F Damp=F
 DIIS: error= 1.42D-02 at cycle   3 NSaved=   3.
 NSaved= 3 IEnMin= 3 EnMin= -859.947024113823     IErMin= 3 ErrMin= 1.42D-02
 ErrMax= 1.42D-02  0.00D+00 EMaxC= 1.00D-01 BMatC= 3.57D-02 BMatP= 5.90D-02
 IDIUse=3 WtCom= 8.58D-01 WtEn= 1.42D-01
 Coeff-Com:  0.649D-01 0.426D+00 0.509D+00
 Coeff-En:   0.000D+00 0.000D+00 0.100D+01
 Coeff:      0.557D-01 0.366D+00 0.579D+00
 Gap=     0.141 Goal=   None    Shift=    0.000
 RMSDP=1.64D-03 MaxDP=5.14D-02 DE=-1.64D-01 OVMax= 7.50D-02

 Cycle   4  Pass 1  IDiag  1:
 RMSU=  1.01D-03    CP:  1.01D+00  8.41D-01  5.18D-01
 E= -859.969793998568     Delta-E=       -0.022769884745 Rises=F Damp=F
 DIIS: error= 8.53D-03 at cycle   4 NSaved=   4.
 NSaved= 4 IEnMin= 4 EnMin= -859.969793998568     IErMin= 4 ErrMin= 8.53D-03
 ErrMax= 8.53D-03  0.00D+00 EMaxC= 1.00D-01 BMatC= 9.60D-03 BMatP= 3.57D-02
 IDIUse=3 WtCom= 9.15D-01 WtEn= 8.53D-02
 Coeff-Com:  0.168D-01 0.132D+00 0.357D+00 0.494D+00
 Coeff-En:   0.000D+00 0.000D+00 0.232D+00 0.768D+00
 Coeff:      0.154D-01 0.121D+00 0.347D+00 0.517D+00
 Gap=     0.135 Goal=   None    Shift=    0.000
 RMSDP=6.77D-04 MaxDP=2.56D-02 DE=-2.28D-02 OVMax= 3.43D-02

 Cycle   5  Pass 1  IDiag  1:
 RMSU=  3.19D-04    CP:  1.00D+00  7.86D-01  6.69D-01  5.73D-01
 E= -859.977157014966     Delta-E=       -0.007363016398 Rises=F Damp=F
 DIIS: error= 2.03D-03 at cycle   5 NSaved=   5.
 NSaved= 5 IEnMin= 5 EnMin= -859.977157014966     IErMin= 5 ErrMin= 2.03D-03
 ErrMax= 2.03D-03  0.00D+00 EMaxC= 1.00D-01 BMatC= 7.17D-04 BMatP= 9.60D-03
 IDIUse=3 WtCom= 9.80D-01 WtEn= 2.03D-02
 Coeff-Com:  0.334D-03 0.177D-01 0.128D+00 0.300D+00 0.554D+00
 Coeff-En:   0.000D+00 0.000D+00 0.000D+00 0.242D-01 0.976D+00
 Coeff:      0.328D-03 0.174D-01 0.126D+00 0.294D+00 0.563D+00
 Gap=     0.136 Goal=   None    Shift=    0.000
 RMSDP=1.95D-04 MaxDP=4.79D-03 DE=-7.36D-03 OVMax= 9.12D-03

 Cycle   6  Pass 1  IDiag  1:
 RMSU=  1.00D-04    CP:  1.00D+00  7.91D-01  6.56D-01  6.41D-01  5.38D-01
 E= -859.977707719883     Delta-E=       -0.000550704917 Rises=F Damp=F
 DIIS: error= 6.63D-04 at cycle   6 NSaved=   6.
 NSaved= 6 IEnMin= 6 EnMin= -859.977707719883     IErMin= 6 ErrMin= 6.63D-04
 ErrMax= 6.63D-04  0.00D+00 EMaxC= 1.00D-01 BMatC= 7.73D-05 BMatP= 7.17D-04
 IDIUse=3 WtCom= 9.93D-01 WtEn= 6.63D-03
 Coeff-Com: -0.732D-03 0.170D-02 0.474D-01 0.133D+00 0.344D+00 0.475D+00
 Coeff-En:   0.000D+00 0.000D+00 0.000D+00 0.000D+00 0.650D-01 0.935D+00
 Coeff:     -0.727D-03 0.169D-02 0.471D-01 0.132D+00 0.342D+00 0.478D+00
 Gap=     0.136 Goal=   None    Shift=    0.000
 RMSDP=6.03D-05 MaxDP=1.54D-03 DE=-5.51D-04 OVMax= 2.31D-03

 Cycle   7  Pass 1  IDiag  1:
 RMSU=  3.63D-05    CP:  1.00D+00  7.90D-01  6.55D-01  6.30D-01  5.98D-01
                    CP:  5.77D-01
 E= -859.977777109435     Delta-E=       -0.000069389552 Rises=F Damp=F
 DIIS: error= 1.73D-04 at cycle   7 NSaved=   7.
 NSaved= 7 IEnMin= 7 EnMin= -859.977777109435     IErMin= 7 ErrMin= 1.73D-04
 ErrMax= 1.73D-04  0.00D+00 EMaxC= 1.00D-01 BMatC= 5.29D-06 BMatP= 7.73D-05
 IDIUse=3 WtCom= 9.98D-01 WtEn= 1.73D-03
 Coeff-Com: -0.311D-03-0.961D-03 0.127D-01 0.394D-01 0.129D+00 0.267D+00
 Coeff-Com:  0.552D+00
 Coeff-En:   0.000D+00 0.000D+00 0.000D+00 0.000D+00 0.000D+00 0.000D+00
 Coeff-En:   0.100D+01
 Coeff:     -0.311D-03-0.959D-03 0.127D-01 0.394D-01 0.129D+00 0.267D+00
 Coeff:      0.553D+00
 Gap=     0.137 Goal=   None    Shift=    0.000
 RMSDP=1.68D-05 MaxDP=7.16D-04 DE=-6.94D-05 OVMax= 6.71D-04

 Cycle   8  Pass 1  IDiag  1:
 RMSU=  1.06D-05    CP:  1.00D+00  7.91D-01  6.56D-01  6.32D-01  6.10D-01
                    CP:  6.18D-01  6.93D-01
 E= -859.977781099115     Delta-E=       -0.000003989680 Rises=F Damp=F
 DIIS: error= 7.11D-05 at cycle   8 NSaved=   8.
 NSaved= 8 IEnMin= 8 EnMin= -859.977781099115     IErMin= 8 ErrMin= 7.11D-05
 ErrMax= 7.11D-05  0.00D+00 EMaxC= 1.00D-01 BMatC= 7.98D-07 BMatP= 5.29D-06
 IDIUse=1 WtCom= 1.00D+00 WtEn= 0.00D+00
 Coeff-Com: -0.417D-04-0.783D-03 0.209D-02 0.756D-02 0.384D-01 0.114D+00
 Coeff-Com:  0.338D+00 0.501D+00
 Coeff:     -0.417D-04-0.783D-03 0.209D-02 0.756D-02 0.384D-01 0.114D+00
 Coeff:      0.338D+00 0.501D+00
 Gap=     0.137 Goal=   None    Shift=    0.000
 RMSDP=6.00D-06 MaxDP=1.39D-04 DE=-3.99D-06 OVMax= 2.90D-04

 Cycle   9  Pass 1  IDiag  1:
 RMSU=  3.74D-06    CP:  1.00D+00  7.90D-01  6.56D-01  6.33D-01  6.09D-01
                    CP:  6.19D-01  7.04D-01  5.88D-01
 E= -859.977781709797     Delta-E=       -0.000000610682 Rises=F Damp=F
 DIIS: error= 2.58D-05 at cycle   9 NSaved=   9.
 NSaved= 9 IEnMin= 9 EnMin= -859.977781709797     IErMin= 9 ErrMin= 2.58D-05
 ErrMax= 2.58D-05  0.00D+00 EMaxC= 1.00D-01 BMatC= 9.47D-08 BMatP= 7.98D-07
 IDIUse=1 WtCom= 1.00D+00 WtEn= 0.00D+00
 Coeff-Com:  0.267D-04-0.398D-03 0.132D-03 0.774D-03 0.110D-01 0.460D-01
 Coeff-Com:  0.152D+00 0.316D+00 0.475D+00
 Coeff:      0.267D-04-0.398D-03 0.132D-03 0.774D-03 0.110D-01 0.460D-01
 Coeff:      0.152D+00 0.316D+00 0.475D+00
 Gap=     0.137 Goal=   None    Shift=    0.000
 RMSDP=1.91D-06 MaxDP=3.88D-05 DE=-6.11D-07 OVMax= 9.50D-05

 Cycle  10  Pass 1  IDiag  1:
 RMSU=  1.28D-06    CP:  1.00D+00  7.90D-01  6.56D-01  6.33D-01  6.10D-01
                    CP:  6.22D-01  7.03D-01  6.17D-01  6.70D-01
 E= -859.977781787580     Delta-E=       -0.000000077783 Rises=F Damp=F
 DIIS: error= 8.21D-06 at cycle  10 NSaved=  10.
 NSaved=10 IEnMin=10 EnMin= -859.977781787580     IErMin=10 ErrMin= 8.21D-06
 ErrMax= 8.21D-06  0.00D+00 EMaxC= 1.00D-01 BMatC= 7.89D-09 BMatP= 9.47D-08
 IDIUse=1 WtCom= 1.00D+00 WtEn= 0.00D+00
 Coeff-Com:  0.265D-04-0.151D-03-0.155D-03-0.515D-03 0.133D-02 0.123D-01
 Coeff-Com:  0.427D-01 0.118D+00 0.267D+00 0.560D+00
 Coeff:      0.265D-04-0.151D-03-0.155D-03-0.515D-03 0.133D-02 0.123D-01
 Coeff:      0.427D-01 0.118D+00 0.267D+00 0.560D+00
 Gap=     0.137 Goal=   None    Shift=    0.000
 RMSDP=6.60D-07 MaxDP=1.66D-05 DE=-7.78D-08 OVMax= 3.73D-05

 Cycle  11  Pass 1  IDiag  1:
 RMSU=  4.92D-07    CP:  1.00D+00  7.90D-01  6.56D-01  6.33D-01  6.10D-01
                    CP:  6.23D-01  7.05D-01  6.28D-01  7.05D-01  7.21D-01
 E= -859.977781793475     Delta-E=       -0.000000005895 Rises=F Damp=F
 DIIS: error= 3.80D-06 at cycle  11 NSaved=  11.
 NSaved=11 IEnMin=11 EnMin= -859.977781793475     IErMin=11 ErrMin= 3.80D-06
 ErrMax= 3.80D-06  0.00D+00 EMaxC= 1.00D-01 BMatC= 1.63D-09 BMatP= 7.89D-09
 IDIUse=1 WtCom= 1.00D+00 WtEn= 0.00D+00
 Coeff-Com:  0.140D-04-0.320D-04-0.113D-03-0.466D-03-0.108D-02 0.189D-03
 Coeff-Com:  0.134D-02 0.218D-01 0.920D-01 0.360D+00 0.527D+00
 Coeff:      0.140D-04-0.320D-04-0.113D-03-0.466D-03-0.108D-02 0.189D-03
 Coeff:      0.134D-02 0.218D-01 0.920D-01 0.360D+00 0.527D+00
 Gap=     0.137 Goal=   None    Shift=    0.000
 RMSDP=2.85D-07 MaxDP=7.68D-06 DE=-5.90D-09 OVMax= 1.59D-05

 Cycle  12  Pass 1  IDiag  1:
 RMSU=  1.80D-07    CP:  1.00D+00  7.90D-01  6.56D-01  6.33D-01  6.09D-01
                    CP:  6.24D-01  7.06D-01  6.32D-01  7.11D-01  7.79D-01
                    CP:  6.27D-01
 E= -859.977781794862     Delta-E=       -0.000000001387 Rises=F Damp=F
 DIIS: error= 1.46D-06 at cycle  12 NSaved=  12.
 NSaved=12 IEnMin=12 EnMin= -859.977781794862     IErMin=12 ErrMin= 1.46D-06
 ErrMax= 1.46D-06  0.00D+00 EMaxC= 1.00D-01 BMatC= 1.90D-10 BMatP= 1.63D-09
 IDIUse=1 WtCom= 1.00D+00 WtEn= 0.00D+00
 Coeff-Com:  0.559D-05-0.278D-05-0.441D-04-0.208D-03-0.764D-03-0.119D-02
 Coeff-Com: -0.396D-02 0.561D-04 0.273D-01 0.153D+00 0.320D+00 0.506D+00
 Coeff:      0.559D-05-0.278D-05-0.441D-04-0.208D-03-0.764D-03-0.119D-02
 Coeff:     -0.396D-02 0.561D-04 0.273D-01 0.153D+00 0.320D+00 0.506D+00
 Gap=     0.137 Goal=   None    Shift=    0.000
 RMSDP=9.42D-08 MaxDP=2.12D-06 DE=-1.39D-09 OVMax= 4.47D-06

 Cycle  13  Pass 1  IDiag  1:
 RMSU=  5.70D-08    CP:  1.00D+00  7.90D-01  6.56D-01  6.33D-01  6.09D-01
                    CP:  6.23D-01  7.06D-01  6.31D-01  7.14D-01  7.91D-01
                    CP:  6.76D-01  6.38D-01
 E= -859.977781795028     Delta-E=       -0.000000000166 Rises=F Damp=F
 DIIS: error= 2.28D-07 at cycle  13 NSaved=  13.
 NSaved=13 IEnMin=13 EnMin= -859.977781795028     IErMin=13 ErrMin= 2.28D-07
 ErrMax= 2.28D-07  0.00D+00 EMaxC= 1.00D-01 BMatC= 1.02D-11 BMatP= 1.90D-10
 IDIUse=1 WtCom= 1.00D+00 WtEn= 0.00D+00
 Coeff-Com:  0.959D-06 0.251D-05-0.106D-04-0.521D-04-0.250D-03-0.591D-03
 Coeff-Com: -0.215D-02-0.243D-02 0.306D-02 0.305D-01 0.889D-01 0.240D+00
 Coeff-Com:  0.642D+00
 Coeff:      0.959D-06 0.251D-05-0.106D-04-0.521D-04-0.250D-03-0.591D-03
 Coeff:     -0.215D-02-0.243D-02 0.306D-02 0.305D-01 0.889D-01 0.240D+00
 Coeff:      0.642D+00
 Gap=     0.137 Goal=   None    Shift=    0.000
 RMSDP=2.61D-08 MaxDP=6.73D-07 DE=-1.66D-10 OVMax= 8.65D-07

 Cycle  14  Pass 1  IDiag  1:
 RMSU=  1.96D-08    CP:  1.00D+00  7.90D-01  6.56D-01  6.33D-01  6.09D-01
                    CP:  6.23D-01  7.06D-01  6.31D-01  7.16D-01  7.92D-01
                    CP:  6.84D-01  6.82D-01  8.10D-01
 E= -859.977781795034     Delta-E=       -0.000000000006 Rises=F Damp=F
 DIIS: error= 1.07D-07 at cycle  14 NSaved=  14.
 NSaved=14 IEnMin=14 EnMin= -859.977781795034     IErMin=14 ErrMin= 1.07D-07
 ErrMax= 1.07D-07  0.00D+00 EMaxC= 1.00D-01 BMatC= 1.93D-12 BMatP= 1.02D-11
 IDIUse=1 WtCom= 1.00D+00 WtEn= 0.00D+00
 Coeff-Com: -0.211D-06 0.157D-05-0.285D-06-0.135D-05-0.378D-04-0.162D-03
 Coeff-Com: -0.724D-03-0.130D-02-0.177D-02-0.304D-02 0.691D-02 0.732D-01
 Coeff-Com:  0.367D+00 0.560D+00
 Coeff:     -0.211D-06 0.157D-05-0.285D-06-0.135D-05-0.378D-04-0.162D-03
 Coeff:     -0.724D-03-0.130D-02-0.177D-02-0.304D-02 0.691D-02 0.732D-01
 Coeff:      0.367D+00 0.560D+00
 Gap=     0.137 Goal=   None    Shift=    0.000
 RMSDP=9.93D-09 MaxDP=2.67D-07 DE=-6.37D-12 OVMax= 3.91D-07

 Error on total polarization charges =  0.00368
 SCF Done:  E(RB3LYP) =  -859.977781795     A.U. after   14 cycles
            NFock= 14  Conv=0.99D-08     -V/T= 2.0075
 KE= 8.535349785606D+02 PE=-4.398186134580D+03 EE= 1.487429646968D+03
 Leave Link  502 at Tue Jan 30 17:41:49 2024, MaxMem=  1073741824 cpu:             168.7 elap:              21.6
 (Enter /share/software/user/restricted/gaussian/g16.B01/l801.exe)
 DoSCS=F DFT=T ScalE2(SS,OS)=  1.000000  1.000000
 ExpMin= 1.83D-01 ExpMax= 3.22D+02 ExpMxC= 3.22D+02 IAcc=3 IRadAn=         5 AccDes= 0.00D+00
 HarFok:  IExCor=  205 AccDes= 0.00D+00 IRadAn=         5 IDoV=-2 UseB2=F ITyADJ=14
 ICtDFT= 12500011 ScaDFX=  1.000000  1.000000  1.000000  1.000000
 Largest valence mixing into a core orbital is  2.25D-04
 Largest core mixing into a valence orbital is  5.86D-05
 Range of M.O.s used for correlation:    19   178
 NBasis=   178 NAE=    63 NBE=    63 NFC=    18 NFV=     0
 NROrb=    160 NOA=    45 NOB=    45 NVA=   115 NVB=   115
 Leave Link  801 at Tue Jan 30 17:41:50 2024, MaxMem=  1073741824 cpu:               1.9 elap:               0.3
 (Enter /share/software/user/restricted/gaussian/g16.B01/l914.exe)
 RHF ground state
 Keep R1, R2, and R3 ints in memory in canonical form, NReq=411822424.
 FoFCou: FMM=F IPFlag=           0 FMFlag=           0 FMFlg1=           0
         NFxFlg=           0 DoJE=F BraDBF=F KetDBF=F FulRan=T
         wScrn=  0.000000 ICntrl=       600 IOpCl=  0 I1Cent=           0 NGrid=           0
         NMat0=    1 NMatS0=  15931 NMatT0=    0 NMatD0=    1 NMtDS0=    0 NMtDT0=    0
 Symmetry not used in FoFCou.
 Two-electron integral symmetry not used.
 MDV=  1073741824 DFT=T DoStab=F Mixed=T DoRPA=T DoScal=F NonHer=T
 NEqPCM:  Using equilibrium solvation (IEInf=0, Eps=  78.3553, EpsInf=   1.7778)
 Making orbital integer symmetry assigments:
 Orbital symmetries:
       Occupied  (A) (A) (A) (A) (A) (A) (A) (A) (A) (A) (A) (A)
                 (A) (A) (A) (A) (A) (A) (A) (A) (A) (A) (A) (A)
                 (A) (A) (A) (A) (A) (A) (A) (A) (A) (A) (A) (A)
                 (A) (A) (A) (A) (A) (A) (A) (A) (A) (A) (A) (A)
                 (A) (A) (A) (A) (A) (A) (A) (A) (A) (A) (A) (A)
                 (A) (A) (A)
       Virtual   (A) (A) (A) (A) (A) (A) (A) (A) (A) (A) (A) (A)
                 (A) (A) (A) (A) (A) (A) (A) (A) (A) (A) (A) (A)
                 (A) (A) (A) (A) (A) (A) (A) (A) (A) (A) (A) (A)
                 (A) (A) (A) (A) (A) (A) (A) (A) (A) (A) (A) (A)
                 (A) (A) (A) (A) (A) (A) (A) (A) (A) (A) (A) (A)
                 (A) (A) (A) (A) (A) (A) (A) (A) (A) (A) (A) (A)
                 (A) (A) (A) (A) (A) (A) (A) (A) (A) (A) (A) (A)
                 (A) (A) (A) (A) (A) (A) (A) (A) (A) (A) (A) (A)
                 (A) (A) (A) (A) (A) (A) (A) (A) (A) (A) (A) (A)
                 (A) (A) (A) (A) (A) (A) (A)
    20 initial guesses have been made.
 Convergence on wavefunction:    0.000001000000000
 Davidson Disk Diagonalization:  ConvIn= 1.00D-06 SkipCon=T Conv= 1.00D-06.
 Max sub-space:  2000 roots to seek:    20 dimension of matrix:        10350
 Iteration     1 Dimension    20 NMult     0 NNew     20
 CISAX will form    20 AO SS matrices at one time.
 NMat=    20 NSing=    20 JSym2X= 0.
 New state      4 was old state      6
 New state      5 was old state      4
 Excitation Energies [eV] at current iteration:
 Root      1 :     3.364362831844142
 Root      2 :     4.016343860501994
 Root      3 :     4.416601401159385
 Root      4 :     4.479892066696968
 Root      5 :     4.826707399811679
 Root      6 :     5.219129760435076
 Root      7 :     5.248833250131434
 Root      8 :     5.284390607307023
 Root      9 :     5.569731524087823
 Root     10 :     5.619784918432916
 Root     11 :     5.711026594216561
 Root     12 :     6.027087424663595
 Root     13 :     6.125821996399809
 Root     14 :     6.136085295503600
 Root     15 :     6.363510274961977
 Root     16 :     6.768124611819251
 Root     17 :     6.990787314586121
 Root     18 :     7.084812841828326
 Root     19 :     7.370208398766586
 Root     20 :     7.936634294779946
 Iteration     2 Dimension    30 NMult    20 NNew     10
 CISAX will form    10 AO SS matrices at one time.
 NMat=    10 NSing=    10 JSym2X= 0.
 Root      1 not converged, maximum delta is    0.062338711641754
 Root      2 not converged, maximum delta is    0.421086932234375
 Root      3 not converged, maximum delta is    0.379348233583252
 New state      4 was old state      5
 Root      4 not converged, maximum delta is    0.124086237896879
 New state      5 was old state      4
 Root      5 not converged, maximum delta is    0.098167229816675
 Excitation Energies [eV] at current iteration:
 Root      1 :     3.233751490375118   Change is   -0.130611341469025
 Root      2 :     3.872928742551932   Change is   -0.143415117950062
 Root      3 :     4.035710339270206   Change is   -0.380891061889180
 Root      4 :     4.343662205884786   Change is   -0.483045193926893
 Root      5 :     4.383190274008518   Change is   -0.096701792688450
 Iteration     3 Dimension    40 NMult    30 NNew     10
 CISAX will form    10 AO SS matrices at one time.
 NMat=    10 NSing=    10 JSym2X= 0.
 Root      1 not converged, maximum delta is    0.007599644625479
 Root      2 not converged, maximum delta is    0.048758205883508
 Root      3 not converged, maximum delta is    0.046007584926799
 Root      4 not converged, maximum delta is    0.027270044366000
 Root      5 not converged, maximum delta is    0.011994033265841
 Excitation Energies [eV] at current iteration:
 Root      1 :     3.223596824241305   Change is   -0.010154666133813
 Root      2 :     3.851861744338830   Change is   -0.021066998213102
 Root      3 :     4.022557196889183   Change is   -0.013153142381023
 Root      4 :     4.317639887552843   Change is   -0.026022318331942
 Root      5 :     4.380043615154159   Change is   -0.003146658854359
 Iteration     4 Dimension    50 NMult    40 NNew     10
 CISAX will form    10 AO SS matrices at one time.
 NMat=    10 NSing=    10 JSym2X= 0.
 Root      1 not converged, maximum delta is    0.001293398004970
 Root      2 not converged, maximum delta is    0.005381231365901
 Root      3 not converged, maximum delta is    0.004581463319852
 Root      4 not converged, maximum delta is    0.004461758301093
 Root      5 not converged, maximum delta is    0.001040940802214
 Excitation Energies [eV] at current iteration:
 Root      1 :     3.222959333084912   Change is   -0.000637491156394
 Root      2 :     3.849605885111026   Change is   -0.002255859227804
 Root      3 :     4.021315744761089   Change is   -0.001241452128094
 Root      4 :     4.315440136898152   Change is   -0.002199750654691
 Root      5 :     4.379780231256383   Change is   -0.000263383897776
 Iteration     5 Dimension    60 NMult    50 NNew     10
 CISAX will form    10 AO SS matrices at one time.
 NMat=    10 NSing=    10 JSym2X= 0.
 Root      1 not converged, maximum delta is    0.000288123277395
 Root      2 not converged, maximum delta is    0.000810647034688
 Root      3 not converged, maximum delta is    0.000474513785199
 Root      4 not converged, maximum delta is    0.001254015109744
 Root      5 not converged, maximum delta is    0.000335760478926
 Excitation Energies [eV] at current iteration:
 Root      1 :     3.222906419450826   Change is   -0.000052913634085
 Root      2 :     3.849429135728791   Change is   -0.000176749382235
 Root      3 :     4.021224413955761   Change is   -0.000091330805328
 Root      4 :     4.315212882239195   Change is   -0.000227254658957
 Root      5 :     4.379757807264347   Change is   -0.000022423992037
 Iteration     6 Dimension    70 NMult    60 NNew     10
 CISAX will form    10 AO SS matrices at one time.
 NMat=    10 NSing=    10 JSym2X= 0.
 Root      1 not converged, maximum delta is    0.000060539705883
 Root      2 not converged, maximum delta is    0.000221490143348
 Root      3 not converged, maximum delta is    0.000141786973007
 Root      4 not converged, maximum delta is    0.000248729337376
 Root      5 not converged, maximum delta is    0.000104197530032
 Excitation Energies [eV] at current iteration:
 Root      1 :     3.222903999852496   Change is   -0.000002419598330
 Root      2 :     3.849410784952132   Change is   -0.000018350776660
 Root      3 :     4.021217456029436   Change is   -0.000006957926326
 Root      4 :     4.315198860662365   Change is   -0.000014021576831
 Root      5 :     4.379755996058692   Change is   -0.000001811205655
 Iteration     7 Dimension    80 NMult    70 NNew     10
 CISAX will form    10 AO SS matrices at one time.
 NMat=    10 NSing=    10 JSym2X= 0.
 Root      1 not converged, maximum delta is    0.000010482622394
 Root      2 not converged, maximum delta is    0.000039525010401
 Root      3 not converged, maximum delta is    0.000031544245445
 Root      4 not converged, maximum delta is    0.000032699707656
 Root      5 not converged, maximum delta is    0.000031847102784
 Excitation Energies [eV] at current iteration:
 Root      1 :     3.222903921414674   Change is   -0.000000078437822
 Root      2 :     3.849410189150523   Change is   -0.000000595801608
 Root      3 :     4.021217121663700   Change is   -0.000000334365735
 Root      4 :     4.315198339475690   Change is   -0.000000521186674
 Root      5 :     4.379755874197765   Change is   -0.000000121860926
 Iteration     8 Dimension    90 NMult    80 NNew     10
 CISAX will form    10 AO SS matrices at one time.
 NMat=    10 NSing=    10 JSym2X= 0.
 Root      1 not converged, maximum delta is    0.000003554823177
 Root      2 not converged, maximum delta is    0.000006595706330
 Root      3 not converged, maximum delta is    0.000005866019307
 Root      4 not converged, maximum delta is    0.000011939208269
 Root      5 not converged, maximum delta is    0.000007808411810
 Excitation Energies [eV] at current iteration:
 Root      1 :     3.222903919376107   Change is   -0.000000002038567
 Root      2 :     3.849410172215828   Change is   -0.000000016934695
 Root      3 :     4.021217109966883   Change is   -0.000000011696817
 Root      4 :     4.315198307894939   Change is   -0.000000031580752
 Root      5 :     4.379755865491110   Change is   -0.000000008706655
 Iteration     9 Dimension   100 NMult    90 NNew     10
 CISAX will form    10 AO SS matrices at one time.
 NMat=    10 NSing=    10 JSym2X= 0.
 Root      1 has converged.
 Root      2 not converged, maximum delta is    0.000001511363332
 Root      3 not converged, maximum delta is    0.000001660926612
 Root      4 not converged, maximum delta is    0.000002267663324
 Root      5 not converged, maximum delta is    0.000001608260059
 Excitation Energies [eV] at current iteration:
 Root      1 :     3.222903919317772   Change is   -0.000000000058335
 Root      2 :     3.849410171389206   Change is   -0.000000000826622
 Root      3 :     4.021217109425684   Change is   -0.000000000541199
 Root      4 :     4.315198305711252   Change is   -0.000000002183686
 Root      5 :     4.379755864832437   Change is   -0.000000000658673
 Iteration    10 Dimension   108 NMult   100 NNew      8
 CISAX will form     8 AO SS matrices at one time.
 NMat=     8 NSing=     8 JSym2X= 0.
 Root      1 has converged.
 Root      2 has converged.
 Root      3 has converged.
 Root      4 has converged.
 Root      5 has converged.
 Excitation Energies [eV] at current iteration:
 Root      1 :     3.222903919316905   Change is   -0.000000000000867
 Root      2 :     3.849410171362298   Change is   -0.000000000026908
 Root      3 :     4.021217109405016   Change is   -0.000000000020668
 Root      4 :     4.315198305583956   Change is   -0.000000000127297
 Root      5 :     4.379755864794147   Change is   -0.000000000038291
 Convergence achieved on expansion vectors.
 ***********************************************************************
 Excited states from <AA,BB:AA,BB> singles matrix:
 ***********************************************************************
 
 1PDM for each excited state written to RWF  633
 Ground to excited state transition densities written to RWF  633
 Ground to excited state transition electric dipole moments (Au):
       state          X           Y           Z        Dip. S.      Osc.
         1         1.6586     -0.2085      0.0099      2.7944      0.2206
         2        -0.9720     -0.2313     -0.0019      0.9984      0.0942
         3         0.2699     -0.2602      0.0051      0.1406      0.0138
         4         0.0174      1.1291     -0.0097      1.2752      0.1348
         5        -0.0381     -0.0261      0.0671      0.0066      0.0007
 Ground to excited state transition velocity dipole moments (Au):
       state          X           Y           Z        Dip. S.      Osc.
         1        -0.1604      0.0186     -0.0006      0.0261      0.1468
         2         0.1074      0.0196      0.0010      0.0119      0.0561
         3        -0.0358      0.0217      0.0003      0.0018      0.0079
         4        -0.0031     -0.1581      0.0016      0.0250      0.1052
         5         0.0051      0.0028     -0.0104      0.0001      0.0006
 Ground to excited state transition magnetic dipole moments (Au):
       state          X           Y           Z
         1         0.0045      0.0068      0.1090
         2        -0.0045     -0.0012      0.1740
         3         0.0026      0.0046      0.0499
         4         0.0023     -0.0123     -0.8779
         5        -0.0807     -0.5316      0.0089
 Ground to excited state transition velocity quadrupole moments (Au):
       state          XX          YY          ZZ          XY          XZ          YZ
         1         0.0103      0.0078     -0.0140      0.1573     -0.0008      0.0036
         2        -0.7615     -0.0027      0.0198     -0.1633     -0.0038     -0.0049
         3        -0.5583      0.0272      0.0023     -0.0098     -0.0035     -0.0004
         4        -0.1940     -0.0124      0.0179     -0.8341      0.0097      0.0005
         5        -0.0313      0.0035     -0.0007     -0.0017      0.0400      0.0003
 <0|del|b> * <b|rxdel|0> + <0|del|b> * <b|delr+rdel|0>
 Rotatory Strengths (R) in cgs (10**-40 erg-esu-cm/Gauss)
       state          XX          YY          ZZ    R(velocity)    E-M Angle
         1        -0.0456     -3.7893     -0.1325     -1.3225       92.16
         2         0.1486     -1.7392     -0.1385     -0.5764       91.04
         3         0.4507     -0.1383     -0.2033      0.0364       90.00
         4         1.5749     -0.1770      0.8993      0.7657       89.79
         5        -3.7105     -1.1429     -3.9587     -2.9374      108.30
 1/2[<0|r|b>*<b|rxdel|0> + (<0|rxdel|b>*<b|r|0>)*]
 Rotatory Strengths (R) in cgs (10**-40 erg-esu-cm/Gauss)
       state          XX          YY          ZZ     R(length)
         1        -5.3190      1.0098     -0.7657     -1.6916
         2        -3.1182     -0.2028      0.2338     -1.0291
         3        -0.4934      0.8389     -0.1797      0.0553
         4        -0.0283      9.8025     -6.0370      1.2457
         5        -2.1757     -9.8123     -0.4238     -4.1373
  1/2[<0|del|b>*<b|r|0> + (<0|r|b>*<b|del|0>)*] (Au)
       state          X           Y           Z        Dip. S.   Osc.(frdel)
         1        -0.2660     -0.0039     -0.0000      0.2699      0.1799
         2        -0.1044     -0.0045     -0.0000      0.1089      0.0726
         3        -0.0097     -0.0056      0.0000      0.0153      0.0102
         4        -0.0001     -0.1785     -0.0000      0.1786      0.1191
         5        -0.0002     -0.0001     -0.0007      0.0010      0.0006

 Excitation energies and oscillator strengths:
 
 Excited State   1:      Singlet-A      3.2229 eV  384.70 nm  f=0.2206  <S**2>=0.000
      63 -> 64         0.70280
 This state for optimization and/or second-order correction.
 Total Energy, E(TD-HF/TD-DFT) =  -859.859342255    
 Copying the excited state density for this state as the 1-particle RhoCI density.
 
 Excited State   2:      Singlet-A      3.8494 eV  322.09 nm  f=0.0942  <S**2>=0.000
      61 -> 64         0.14656
      62 -> 64         0.68006
 
 Excited State   3:      Singlet-A      4.0212 eV  308.33 nm  f=0.0138  <S**2>=0.000
      61 -> 64         0.67666
      62 -> 64        -0.13695
      63 -> 65        -0.12072
 
 Excited State   4:      Singlet-A      4.3152 eV  287.32 nm  f=0.1348  <S**2>=0.000
      61 -> 64         0.11362
      63 -> 65         0.67343
 
 Excited State   5:      Singlet-A      4.3798 eV  283.08 nm  f=0.0007  <S**2>=0.000
      60 -> 64         0.69421
      60 -> 66         0.10853
 SavETr:  write IOETrn=   770 NScale= 10 NData=  16 NLR=1 NState=    5 LETran=     100.
 The selected state is a singlet.
 CISGrd: IGrad=3 NXY=2 DFT=T
 CISAX will form     1 AO SS matrices at one time.
 NMat=     1 NSing=     1 JSym2X= 0.
 GePol: Maximum number of non-zero 1st derivatives   =     199
 GePol: Maximum number of non-zero 2nd derivatives   =     199
 Leave Link  914 at Tue Jan 30 17:43:17 2024, MaxMem=  1073741824 cpu:             677.3 elap:              85.9
 (Enter /share/software/user/restricted/gaussian/g16.B01/l1002.exe)
 Minotr:  Closed shell wavefunction.
          Computing CIS/TDA/TD derivatives.
          Using Z-Vector for PSCF gradient.
          Skipping F1 and S1 gradient terms here.
          IDoAtm=11111111111111111111111111
 NEqPCM:  Using equilibrium solvation (IEInf=0, Eps=  78.3553, EpsInf=   1.7778)
          Frozen-core window.
          Direct CPHF calculation.
          Differentiating once with respect to electric field.
                with respect to dipole field.
          Differentiating once with respect to nuclear coordinates.
          Requested convergence is 1.0D-10 RMS, and 1.0D-09 maximum.
          NewPWx=F KeepS1=T KeepF1=T KeepIn=T MapXYZ=F SortEE=F KeepMc=T.
 Keep R1 ints in memory in canonical form, NReq=139185935.
 FoFCou: FMM=F IPFlag=           0 FMFlag=           0 FMFlg1=           0
         NFxFlg=           0 DoJE=F BraDBF=F KetDBF=F FulRan=T
         wScrn=  0.000000 ICntrl=       600 IOpCl=  0 I1Cent=           0 NGrid=           0
         NMat0=    1 NMatS0=  15931 NMatT0=    0 NMatD0=    1 NMtDS0=    0 NMtDT0=    0
 Symmetry not used in FoFCou.
 Two-electron integral symmetry not used.
          MDV=    1073741824 using IRadAn=       5.
          Solving linear equations separately, MaxMat=       0.
          There are     1 degrees of freedom in the 1st order CPHF.  IDoFFX=0 NUNeed=     1.
 LinEq1:  Iter=  0 NonCon=     1 RMS=1.68D-02 Max=9.14D-01 NDo=     1
 AX will form     1 AO Fock derivatives at one time.
 LinEq1:  Iter=  1 NonCon=     1 RMS=1.04D-02 Max=3.91D-01 NDo=     1
 LinEq1:  Iter=  2 NonCon=     1 RMS=7.33D-03 Max=2.76D-01 NDo=     1
 LinEq1:  Iter=  3 NonCon=     1 RMS=5.20D-03 Max=1.36D-01 NDo=     1
 LinEq1:  Iter=  4 NonCon=     1 RMS=2.49D-03 Max=6.09D-02 NDo=     1
 LinEq1:  Iter=  5 NonCon=     1 RMS=1.86D-03 Max=5.23D-02 NDo=     1
 LinEq1:  Iter=  6 NonCon=     1 RMS=1.19D-03 Max=2.02D-02 NDo=     1
 LinEq1:  Iter=  7 NonCon=     1 RMS=6.46D-04 Max=1.23D-02 NDo=     1
 LinEq1:  Iter=  8 NonCon=     1 RMS=3.82D-04 Max=8.01D-03 NDo=     1
 LinEq1:  Iter=  9 NonCon=     1 RMS=2.72D-04 Max=6.66D-03 NDo=     1
 LinEq1:  Iter= 10 NonCon=     1 RMS=1.83D-04 Max=4.57D-03 NDo=     1
 LinEq1:  Iter= 11 NonCon=     1 RMS=8.69D-05 Max=1.36D-03 NDo=     1
 LinEq1:  Iter= 12 NonCon=     1 RMS=6.07D-05 Max=1.30D-03 NDo=     1
 LinEq1:  Iter= 13 NonCon=     1 RMS=2.57D-05 Max=6.65D-04 NDo=     1
 LinEq1:  Iter= 14 NonCon=     1 RMS=1.84D-05 Max=4.24D-04 NDo=     1
 LinEq1:  Iter= 15 NonCon=     1 RMS=8.98D-06 Max=2.38D-04 NDo=     1
 LinEq1:  Iter= 16 NonCon=     1 RMS=4.50D-06 Max=8.50D-05 NDo=     1
 LinEq1:  Iter= 17 NonCon=     1 RMS=2.00D-06 Max=3.19D-05 NDo=     1
 LinEq1:  Iter= 18 NonCon=     1 RMS=8.30D-07 Max=1.98D-05 NDo=     1
 LinEq1:  Iter= 19 NonCon=     1 RMS=4.22D-07 Max=1.00D-05 NDo=     1
 LinEq1:  Iter= 20 NonCon=     1 RMS=1.61D-07 Max=3.73D-06 NDo=     1
 LinEq1:  Iter= 21 NonCon=     1 RMS=8.56D-08 Max=1.39D-06 NDo=     1
 LinEq1:  Iter= 22 NonCon=     1 RMS=3.24D-08 Max=8.79D-07 NDo=     1
 LinEq1:  Iter= 23 NonCon=     1 RMS=1.16D-08 Max=3.61D-07 NDo=     1
 LinEq1:  Iter= 24 NonCon=     1 RMS=5.93D-09 Max=9.08D-08 NDo=     1
 LinEq1:  Iter= 25 NonCon=     1 RMS=2.99D-09 Max=5.66D-08 NDo=     1
 LinEq1:  Iter= 26 NonCon=     1 RMS=1.02D-09 Max=1.55D-08 NDo=     1
 LinEq1:  Iter= 27 NonCon=     1 RMS=2.71D-10 Max=7.04D-09 NDo=     1
 LinEq1:  Iter= 28 NonCon=     1 RMS=1.43D-10 Max=1.96D-09 NDo=     1
 LinEq1:  Iter= 29 NonCon=     0 RMS=2.06D-11 Max=2.81D-10 NDo=     1
 Linear equations converged to 1.000D-10 1.000D-09 after    29 iterations.
          There are     1 degrees of freedom in the 1st order CPHF.  IDoFFX=0 NUNeed=     1.
 End of Minotr F.D. properties file   721 does not exist.
 End of Minotr F.D. properties file   722 does not exist.
 End of Minotr F.D. properties file   788 does not exist.
 Leave Link 1002 at Tue Jan 30 17:44:08 2024, MaxMem=  1073741824 cpu:             359.6 elap:              50.6
 (Enter /share/software/user/restricted/gaussian/g16.B01/l1101.exe)
 Using compressed Sx but separate Hx and Fx, NAtomX=    26.
 Will process     27 centers per pass.
 Leave Link 1101 at Tue Jan 30 17:44:09 2024, MaxMem=  1073741824 cpu:               1.1 elap:               0.2
 (Enter /share/software/user/restricted/gaussian/g16.B01/l1102.exe)
 Use density number 6.
 Symmetrizing basis deriv contribution to polar:
 IMax=3 JMax=2 DiffMx= 0.00D+00
 Leave Link 1102 at Tue Jan 30 17:44:10 2024, MaxMem=  1073741824 cpu:               0.4 elap:               0.1
 (Enter /share/software/user/restricted/gaussian/g16.B01/l1110.exe)
 Forming Gx(P) for the SCF density, NAtomX=    26.
 Integral derivatives from FoFJK, PRISM(SPDF).
 Do as many integral derivatives as possible in FoFJK.
 G2DrvN: MDV=    1073739660.
 G2DrvN: will do    27 centers at a time, making    1 passes.
 Calling FoFCou, ICntrl=  3107 FMM=F I1Cent=   0 AccDes= 0.00D+00.
 FoFJK:  IHMeth= 1 ICntrl=    3107 DoSepK=F KAlg= 0 I1Cent=           0 FoldK=F
 IRaf=         0 NMat=       1 IRICut=       1 DoRegI=T DoRafI=F ISym2E= 0 IDoP0=0 IntGTp=1.
 FoFCou: FMM=F IPFlag=           0 FMFlag=      100000 FMFlg1=           0
         NFxFlg=           0 DoJE=F BraDBF=F KetDBF=F FulRan=T
         wScrn=  0.000000 ICntrl=      3107 IOpCl=  0 I1Cent=           0 NGrid=           0
         NMat0=    1 NMatS0=      1 NMatT0=    0 NMatD0=    1 NMtDS0=    0 NMtDT0=    0
 Symmetry not used in FoFCou.
 NEqPCM:  Using equilibrium solvation (IEInf=0, Eps=  78.3553, EpsInf=   1.7778)
 G2PCM: DoFxE=T DoFxN=T DoGrad=T DoDP/DQ/DG/TGxP=FFFF NFrqRd=   0 IEInf=0 SqF1=F DoCFld=F IF1Alg=4.
 Forming Gx(P) for generalized density number  6 NAtomX=    26.
 Integral derivatives from FoFJK, PRISM(SPDF).
 Do as many integral derivatives as possible in FoFJK.
 G2DrvN: MDV=    1073739660.
 G2DrvN: will do    27 centers at a time, making    1 passes.
 Calling FoFCou, ICntrl=  3107 FMM=F I1Cent=   0 AccDes= 0.00D+00.
 NEqPCM:  Using equilibrium solvation (IEInf=0, Eps=  78.3553, EpsInf=   1.7778)
 G2PCM: DoFxE=T DoFxN=F DoGrad=F DoDP/DQ/DG/TGxP=FFFF NFrqRd=   0 IEInf=0 SqF1=F DoCFld=F IF1Alg=4.
 Forming Gx(T) for CIS/TDA/TD state  1 NAtomX=    26.
 Integral derivatives from FoFJK, PRISM(SPDF).
 Do as many integral derivatives as possible in FoFJK.
 G2DrvN: MDV=    1073739660.
 G2DrvN: will do    27 centers at a time, making    1 passes.
 Calling FoFCou, ICntrl=  3107 FMM=F I1Cent=   0 AccDes= 0.00D+00.
 NEqPCM:  Using equilibrium solvation (IEInf=0, Eps=  78.3553, EpsInf=   1.7778)
 G2PCM: DoFxE=T DoFxN=F DoGrad=F DoDP/DQ/DG/TGxP=FFFF NFrqRd=   0 IEInf=0 SqF1=T DoCFld=F IF1Alg=4.
 End of G2Drv F.D. properties file   721 does not exist.
 End of G2Drv F.D. properties file   722 does not exist.
 End of G2Drv F.D. properties file   788 does not exist.
 Leave Link 1110 at Tue Jan 30 17:45:47 2024, MaxMem=  1073741824 cpu:             774.3 elap:              97.0
 (Enter /share/software/user/restricted/gaussian/g16.B01/l1002.exe)
 Minotr:  Closed shell wavefunction.
          IDoAtm=11111111111111111111111111
 NEqPCM:  Using equilibrium solvation (IEInf=0, Eps=  78.3553, EpsInf=   1.7778)
          Frozen-core window.
          Direct CPHF calculation.
          Differentiating once with respect to electric field.
                with respect to dipole field.
          Differentiating once with respect to nuclear coordinates.
          Requested convergence is 1.0D-08 RMS, and 1.0D-07 maximum.
          Secondary convergence is 1.0D-12 RMS, and 1.0D-12 maximum.
          NewPWx=T KeepS1=T KeepF1=T KeepIn=T MapXYZ=F SortEE=F KeepMc=T.
         7833 words used for storage of precomputed grid.
 Keep R1 ints in memory in canonical form, NReq=139193768.
 FoFCou: FMM=F IPFlag=           0 FMFlag=           0 FMFlg1=           0
         NFxFlg=           0 DoJE=F BraDBF=F KetDBF=F FulRan=T
         wScrn=  0.000000 ICntrl=       600 IOpCl=  0 I1Cent=           0 NGrid=           0
         NMat0=    1 NMatS0=  15931 NMatT0=    0 NMatD0=    1 NMtDS0=    0 NMtDT0=    0
 Symmetry not used in FoFCou.
 Two-electron integral symmetry not used.
          MDV=    1073741824 using IRadAn=       1.
          Solving linear equations simultaneously, MaxMat=       0.
          There are    81 degrees of freedom in the 1st order CPHF.  IDoFFX=6 NUNeed=    81.
     78 vectors produced by pass  0 Test12= 8.94D-15 1.23D-09 XBig12= 3.50D+02 8.85D+00.
 AX will form    78 AO Fock derivatives at one time.
     78 vectors produced by pass  1 Test12= 8.94D-15 1.23D-09 XBig12= 8.12D+01 2.13D+00.
     78 vectors produced by pass  2 Test12= 8.94D-15 1.23D-09 XBig12= 3.60D-01 9.43D-02.
     78 vectors produced by pass  3 Test12= 8.94D-15 1.23D-09 XBig12= 1.18D-03 4.65D-03.
     78 vectors produced by pass  4 Test12= 8.94D-15 1.23D-09 XBig12= 2.00D-06 2.18D-04.
     60 vectors produced by pass  5 Test12= 8.94D-15 1.23D-09 XBig12= 1.93D-09 4.00D-06.
      5 vectors produced by pass  6 Test12= 8.94D-15 1.23D-09 XBig12= 1.32D-12 1.19D-07.
      2 vectors produced by pass  7 Test12= 8.94D-15 1.23D-09 XBig12= 8.65D-16 2.60D-09.
 InvSVY:  IOpt=1 It=  1 EMax= 2.49D-14
 Solved reduced A of dimension   457 with    81 vectors.
 FullF1:  Do perturbations      1 to      81.
 Isotropic polarizability for W=    0.000000      181.00 Bohr**3.
 Saving first derivative matrices.
 End of Minotr F.D. properties file   721 does not exist.
 End of Minotr F.D. properties file   722 does not exist.
 End of Minotr F.D. properties file   788 does not exist.
 Leave Link 1002 at Tue Jan 30 17:46:28 2024, MaxMem=  1073741824 cpu:             324.1 elap:              40.7
 (Enter /share/software/user/restricted/gaussian/g16.B01/l1014.exe)
 This link is doing    81 degrees of freedom
 Form MO integral derivatives with frozen-active canonical formalism.
 CISSec: MDV=    1073730066
 Doing TD-HF/TD-DFT second derivatives, IDoFFX=6 IOneXC=4 IRadAn=         1.
 Frozen orbitals handled with amplitudes over full window.
 Frozen-core window:  NFC=  18 NFV=   0.
 Symmetry is being used.
 Keep R1, R2, and R3 ints in memory in canonical form, NReq=393038569.
 FoFCou: FMM=F IPFlag=           0 FMFlag=           0 FMFlg1=           0
         NFxFlg=           0 DoJE=F BraDBF=F KetDBF=F FulRan=T
         wScrn=  0.000000 ICntrl=       600 IOpCl=  0 I1Cent=           0 NGrid=           0
         NMat0=    1 NMatS0=  15931 NMatT0=    0 NMatD0=    1 NMtDS0=    0 NMtDT0=    0
 Symmetry not used in FoFCou.
 The selected state is a singlet.
 CISGrX: IGrad=3 NXY=2 DFT=T
 CISAX will form    81 AO SS matrices at one time.
 NMat=    81 NSing=    81 JSym2X= 0.
     78 vectors produced by pass  0 Test12= 1.28D-14 1.23D-09 XBig12= 2.07D+03 3.72D+01.
 AX will form    78 AO Fock derivatives at one time.
     78 vectors produced by pass  1 Test12= 1.28D-14 1.23D-09 XBig12= 2.13D+03 2.15D+01.
     78 vectors produced by pass  2 Test12= 1.28D-14 1.23D-09 XBig12= 1.90D+01 1.24D+00.
     78 vectors produced by pass  3 Test12= 1.28D-14 1.23D-09 XBig12= 4.77D-02 3.72D-02.
     78 vectors produced by pass  4 Test12= 1.28D-14 1.23D-09 XBig12= 1.30D-04 1.24D-03.
     56 vectors produced by pass  5 Test12= 1.28D-14 1.23D-09 XBig12= 2.48D-07 6.85D-05.
      6 vectors produced by pass  6 Test12= 1.28D-14 1.23D-09 XBig12= 3.96D-10 1.87D-06.
      1 vectors produced by pass  7 Test12= 1.28D-14 1.23D-09 XBig12= 6.05D-13 6.90D-08.
      1 vectors produced by pass  8 Test12= 1.28D-14 1.23D-09 XBig12= 1.08D-15 4.30D-09.
 InvSVY:  IOpt=1 It=  1 EMax= 3.88D-14
 Solved reduced A of dimension   454 with    81 vectors.
 Tx.T =  2.31D-07 for pert.     1
 Tx.T =  1.80D-07 for pert.     2
 Tx.T = -4.48D-08 for pert.    22
 Tx.T =  2.90D-08 for pert.    26
 Tx.T = -2.79D-08 for pert.     7
 Tx.T =  2.77D-08 for pert.    19
 Tx.T = -2.58D-08 for pert.     3
 Tx.T =  2.44D-08 for pert.    28
 Tx.T = -2.25D-08 for pert.    29
 Tx.T =  2.15D-08 for pert.    10
 SavDET:  read IOETrn=   770 NScale= 10 NData=  16 NLR=1 NState=    5 NDeriv=    0 LETran=     100.
 SavDET: write IOETrn=   770 NScale= 10 NData=  16 NLR=1 NState=    5 NDeriv=   81 LETran=    1396.
 TDDxLx will form    81 C1x/S1x matrices at one time.
 Interchange theorem applied.
 FoFJK:  IHMeth= 1 ICntrl=    5100 DoSepK=F KAlg= 0 I1Cent=           0 FoldK=F
[...]
     25          1           0        4.568830   -2.481648   -0.403868
     26          1           0        1.588391   -2.034607   -0.796282
 ---------------------------------------------------------------------
 Rotational constants (GHZ):           1.3454970           0.1763132           0.1595761
 Leave Link  202 at Tue Jan 30 18:21:05 2024, MaxMem=  1073741824 cpu:               0.1 elap:               0.0
 (Enter /share/software/user/restricted/gaussian/g16.B01/l601.exe)
 Copying SCF densities to generalized density rwf, IOpCl= 0 IROHF=0.

 **********************************************************************

            Population analysis using the SCF Density.

 **********************************************************************

 Orbital symmetries:
       Occupied  (A) (A) (A) (A) (A) (A) (A) (A) (A) (A) (A) (A)
                 (A) (A) (A) (A) (A) (A) (A) (A) (A) (A) (A) (A)
                 (A) (A) (A) (A) (A) (A) (A) (A) (A) (A) (A) (A)
                 (A) (A) (A) (A) (A) (A) (A) (A) (A) (A) (A) (A)
                 (A) (A) (A) (A) (A) (A) (A) (A) (A) (A) (A) (A)
                 (A) (A) (A)
       Virtual   (A) (A) (A) (A) (A) (A) (A) (A) (A) (A) (A) (A)
                 (A) (A) (A) (A) (A) (A) (A) (A) (A) (A) (A) (A)
                 (A) (A) (A) (A) (A) (A) (A) (A) (A) (A) (A) (A)
                 (A) (A) (A) (A) (A) (A) (A) (A) (A) (A) (A) (A)
                 (A) (A) (A) (A) (A) (A) (A) (A) (A) (A) (A) (A)
                 (A) (A) (A) (A) (A) (A) (A) (A) (A) (A) (A) (A)
                 (A) (A) (A) (A) (A) (A) (A) (A) (A) (A) (A) (A)
                 (A) (A) (A) (A) (A) (A) (A) (A) (A) (A) (A) (A)
                 (A) (A) (A) (A) (A) (A) (A) (A) (A) (A) (A) (A)
                 (A) (A) (A) (A) (A) (A) (A)
 The electronic state is 1-A.
 Alpha  occ. eigenvalues --  -19.16328 -19.06251 -14.36316 -14.32415 -14.32017
 Alpha  occ. eigenvalues --  -14.30822 -14.28989 -14.28581 -10.27787 -10.23974
 Alpha  occ. eigenvalues --  -10.21478 -10.18976 -10.17903 -10.15985 -10.14392
 Alpha  occ. eigenvalues --  -10.14340 -10.14149 -10.13694  -1.14059  -1.08035
 Alpha  occ. eigenvalues --   -1.04262  -0.96891  -0.96116  -0.91183  -0.86436
 Alpha  occ. eigenvalues --   -0.85810  -0.83981  -0.77069  -0.75692  -0.71908
 Alpha  occ. eigenvalues --   -0.66923  -0.64984  -0.62303  -0.61260  -0.59284
 Alpha  occ. eigenvalues --   -0.57005  -0.54853  -0.54153  -0.53274  -0.51762
 Alpha  occ. eigenvalues --   -0.48954  -0.47941  -0.45937  -0.45509  -0.44922
 Alpha  occ. eigenvalues --   -0.44704  -0.43931  -0.42929  -0.41819  -0.40649
 Alpha  occ. eigenvalues --   -0.38221  -0.37567  -0.36919  -0.35847  -0.32452
 Alpha  occ. eigenvalues --   -0.31650  -0.31530  -0.29748  -0.29490  -0.29231
 Alpha  occ. eigenvalues --   -0.24847  -0.24657  -0.20069
 Alpha virt. eigenvalues --   -0.10640  -0.03303  -0.01656   0.01068   0.02874
 Alpha virt. eigenvalues --    0.05449   0.05853   0.09979   0.10962   0.12113
 Alpha virt. eigenvalues --    0.12637   0.13344   0.14916   0.16434   0.17566
 Alpha virt. eigenvalues --    0.18175   0.18553   0.19217   0.23249   0.23557
 Alpha virt. eigenvalues --    0.24385   0.26304   0.28919   0.31459   0.33469
 Alpha virt. eigenvalues --    0.34265   0.36913   0.38631   0.40410   0.41809
 Alpha virt. eigenvalues --    0.44584   0.49077   0.53293   0.57141   0.59001
 Alpha virt. eigenvalues --    0.65057   0.66673   0.67763   0.68298   0.69618
 Alpha virt. eigenvalues --    0.70382   0.72146   0.73269   0.74498   0.75911
 Alpha virt. eigenvalues --    0.77481   0.77781   0.79280   0.79604   0.80310
 Alpha virt. eigenvalues --    0.82027   0.82799   0.85871   0.86324   0.86611
 Alpha virt. eigenvalues --    0.88284   0.91673   0.93640   0.94982   0.98401
 Alpha virt. eigenvalues --    0.99446   0.99912   1.03658   1.04612   1.07643
 Alpha virt. eigenvalues --    1.08709   1.09754   1.09795   1.10493   1.11131
 Alpha virt. eigenvalues --    1.12195   1.14296   1.16439   1.18011   1.18342
 Alpha virt. eigenvalues --    1.18638   1.19298   1.22879   1.26770   1.27828
 Alpha virt. eigenvalues --    1.28714   1.31002   1.33716   1.37709   1.39132
 Alpha virt. eigenvalues --    1.39294   1.42817   1.46208   1.48291   1.49292
 Alpha virt. eigenvalues --    1.52533   1.54038   1.54654   1.61075   1.62580
 Alpha virt. eigenvalues --    1.65671   1.68305   1.68666   1.72068   1.74083
 Alpha virt. eigenvalues --    1.82078   1.82370   1.89741   1.90222   2.04010
 Alpha virt. eigenvalues --    2.11390   2.38929   2.44793   2.55797   2.58100
 Alpha virt. eigenvalues --    2.80568   2.92191   2.98928   3.08814   3.45385
          Condensed to atoms (all electrons):
               1          2          3          4          5          6
     1  N    7.048156   0.267093  -0.059964   0.001215   0.001857  -0.048116
     2  C    0.267093   4.912064   0.303340  -0.046636  -0.073485   0.109403
     3  N   -0.059964   0.303340   7.035518   0.149425  -0.056574  -0.061567
     4  O    0.001215  -0.046636   0.149425   7.998885   0.155488  -0.067369
     5  N    0.001857  -0.073485  -0.056574   0.155488   6.988359   0.280254
     6  C   -0.048116   0.109403  -0.061567  -0.067369   0.280254   5.844800
     7  C   -0.012459  -0.069492   0.004963   0.003163  -0.048081  -0.031187
     8  O   -0.008435  -0.001913   0.000007  -0.000001   0.000747  -0.090234
     9  N   -0.000026   0.003388  -0.000012   0.000001  -0.006517  -0.122818
    10  C    0.000000  -0.000019   0.000000  -0.000000   0.000209   0.004920
    11  C   -0.000000  -0.000002   0.000000   0.000000  -0.000005  -0.000481
    12  C    0.000000  -0.000000   0.000000   0.000000  -0.000000   0.000002
    13  C   -0.000000   0.000000  -0.000000  -0.000000   0.000000   0.000000
    14  N    0.000000   0.000000   0.000000   0.000000   0.000000   0.000000
    15  N    0.000000  -0.000000   0.000000   0.000000   0.000000   0.000000
    16  C   -0.000000   0.000000  -0.000000   0.000000  -0.000000  -0.000000
    17  C    0.000000  -0.000000  -0.000000   0.000000  -0.000000   0.000000
    18  C   -0.000000  -0.000000  -0.000000   0.000000  -0.000018  -0.000141
    19  H    0.297792  -0.023843   0.001725  -0.000025   0.000072  -0.016417
    20  H    0.330934  -0.028962  -0.001549  -0.000026  -0.000014   0.004238
    21  H   -0.000002   0.000511   0.000014  -0.000071   0.015153   0.000831
    22  H    0.000001  -0.000002  -0.000000   0.000000  -0.000005   0.001104
    23  H    0.000000  -0.000000  -0.000000   0.000000  -0.000000  -0.000000
    24  H   -0.000000   0.000000  -0.000000  -0.000000  -0.000000  -0.000000
    25  H    0.000000  -0.000000  -0.000000   0.000000  -0.000000  -0.000000
    26  H    0.000000  -0.000000  -0.000000   0.000000  -0.000009   0.000006
               7          8          9         10         11         12
     1  N   -0.012459  -0.008435  -0.000026   0.000000  -0.000000   0.000000
     2  C   -0.069492  -0.001913   0.003388  -0.000019  -0.000002  -0.000000
     3  N    0.004963   0.000007  -0.000012   0.000000   0.000000   0.000000
     4  O    0.003163  -0.000001   0.000001  -0.000000   0.000000   0.000000
     5  N   -0.048081   0.000747  -0.006517   0.000209  -0.000005  -0.000000
     6  C   -0.031187  -0.090234  -0.122818   0.004920  -0.000481   0.000002
     7  C    4.835090   0.511301   0.225384  -0.056904  -0.001045   0.000472
     8  O    0.511301   8.102020  -0.064865  -0.003940  -0.008650   0.000277
     9  N    0.225384  -0.064865   7.391664   0.201216  -0.053818   0.004674
    10  C   -0.056904  -0.003940   0.201216   4.933665   0.396360  -0.056757
    11  C   -0.001045  -0.008650  -0.053818   0.396360   5.288538   0.401559
    12  C    0.000472   0.000277   0.004674  -0.056757   0.401559   5.251368
    13  C   -0.000008  -0.000001  -0.000329  -0.034556  -0.058726   0.347844
    14  N   -0.000000   0.000000  -0.000000  -0.000421   0.003930  -0.056787
    15  N   -0.000000  -0.000000   0.000000  -0.000069  -0.000055   0.001380
    16  C    0.000000  -0.000000  -0.000016   0.002787  -0.000042   0.007578
    17  C   -0.000053   0.000001   0.005474  -0.061756  -0.032455  -0.040759
    18  C    0.001559   0.000022  -0.059256   0.438686  -0.041792  -0.035259
    19  H    0.006712   0.039422   0.000290   0.000005  -0.000003  -0.000000
    20  H    0.000016   0.000094   0.000001  -0.000000   0.000000  -0.000000
    21  H   -0.029350   0.001134   0.317010  -0.035747   0.002563  -0.000091
    22  H    0.002161   0.031276  -0.009881  -0.044610   0.353707  -0.031466
    23  H   -0.000000   0.000000  -0.000012   0.003685  -0.037694   0.396947
    24  H    0.000000  -0.000000  -0.000000  -0.000000   0.000025   0.000242
    25  H   -0.000000  -0.000000   0.000000   0.000005  -0.000003  -0.000043
    26  H   -0.000005  -0.000000  -0.005557  -0.042880   0.003180  -0.000239
              13         14         15         16         17         18
     1  N   -0.000000   0.000000   0.000000  -0.000000   0.000000  -0.000000
     2  C    0.000000   0.000000  -0.000000   0.000000  -0.000000  -0.000000
     3  N   -0.000000   0.000000   0.000000  -0.000000  -0.000000  -0.000000
     4  O   -0.000000   0.000000   0.000000   0.000000   0.000000   0.000000
     5  N    0.000000   0.000000   0.000000  -0.000000  -0.000000  -0.000018
     6  C    0.000000   0.000000   0.000000  -0.000000   0.000000  -0.000141
     7  C   -0.000008  -0.000000  -0.000000   0.000000  -0.000053   0.001559
     8  O   -0.000001   0.000000  -0.000000  -0.000000   0.000001   0.000022
     9  N   -0.000329  -0.000000   0.000000  -0.000016   0.005474  -0.059256
    10  C   -0.034556  -0.000421  -0.000069   0.002787  -0.061756   0.438686
    11  C   -0.058726   0.003930  -0.000055  -0.000042  -0.032455  -0.041792
    12  C    0.347844  -0.056787   0.001380   0.007578  -0.040759  -0.035259
    13  C    5.128162   0.144749  -0.116260  -0.100184   0.361905  -0.063793
    14  N    0.144749   7.152632   0.276915  -0.172562  -0.030977   0.009027
    15  N   -0.116260   0.276915   6.862525   0.393384  -0.037303   0.004918
    16  C   -0.100184  -0.172562   0.393384   5.070639   0.330839  -0.024454
    17  C    0.361905  -0.030977  -0.037303   0.330839   5.371578   0.358204
    18  C   -0.063793   0.009027   0.004918  -0.024454   0.358204   5.285148
    19  H    0.000000  -0.000000  -0.000000   0.000000  -0.000000  -0.000000
    20  H    0.000000  -0.000000   0.000000   0.000000  -0.000000  -0.000000
    21  H    0.000010  -0.000000   0.000000  -0.000002   0.000247   0.000414
    22  H    0.003937  -0.000011   0.000000  -0.000000  -0.000255   0.003531
    23  H   -0.050009  -0.004262  -0.000010  -0.000067   0.003277  -0.000246
    24  H   -0.027940   0.338406  -0.020384   0.003591   0.003626  -0.000089
    25  H    0.002657   0.003095  -0.038466   0.387549  -0.043009  -0.000219
    26  H    0.003864  -0.000022   0.000000  -0.003063  -0.037411   0.389943
              19         20         21         22         23         24
     1  N    0.297792   0.330934  -0.000002   0.000001   0.000000  -0.000000
     2  C   -0.023843  -0.028962   0.000511  -0.000002  -0.000000   0.000000
     3  N    0.001725  -0.001549   0.000014  -0.000000  -0.000000  -0.000000
     4  O   -0.000025  -0.000026  -0.000071   0.000000   0.000000  -0.000000
     5  N    0.000072  -0.000014   0.015153  -0.000005  -0.000000  -0.000000
     6  C   -0.016417   0.004238   0.000831   0.001104  -0.000000  -0.000000
     7  C    0.006712   0.000016  -0.029350   0.002161  -0.000000   0.000000
     8  O    0.039422   0.000094   0.001134   0.031276   0.000000  -0.000000
     9  N    0.000290   0.000001   0.317010  -0.009881  -0.000012  -0.000000
    10  C    0.000005  -0.000000  -0.035747  -0.044610   0.003685  -0.000000
    11  C   -0.000003   0.000000   0.002563   0.353707  -0.037694   0.000025
    12  C   -0.000000  -0.000000  -0.000091  -0.031466   0.396947   0.000242
    13  C    0.000000   0.000000   0.000010   0.003937  -0.050009  -0.027940
    14  N   -0.000000  -0.000000  -0.000000  -0.000011  -0.004262   0.338406
    15  N   -0.000000   0.000000   0.000000   0.000000  -0.000010  -0.020384
    16  C    0.000000   0.000000  -0.000002  -0.000000  -0.000067   0.003591
    17  C   -0.000000  -0.000000   0.000247  -0.000255   0.003277   0.003626
    18  C   -0.000000  -0.000000   0.000414   0.003531  -0.000246  -0.000089
    19  H    0.360417  -0.014153  -0.000014   0.000028  -0.000000   0.000000
    20  H   -0.014153   0.356351   0.000000  -0.000000  -0.000000   0.000000
    21  H   -0.000014   0.000000   0.365818  -0.000033   0.000001   0.000000
    22  H    0.000028  -0.000000  -0.000033   0.467920  -0.003934  -0.000000
    23  H   -0.000000  -0.000000   0.000001  -0.003934   0.474164   0.000841
    24  H    0.000000   0.000000   0.000000  -0.000000   0.000841   0.336663
    25  H   -0.000000   0.000000   0.000000  -0.000000   0.000001  -0.000043
    26  H    0.000000  -0.000000   0.003751  -0.000024   0.000002   0.000001
              25         26
     1  N    0.000000   0.000000
     2  C   -0.000000  -0.000000
     3  N   -0.000000  -0.000000
     4  O    0.000000   0.000000
     5  N   -0.000000  -0.000009
     6  C   -0.000000   0.000006
     7  C   -0.000000  -0.000005
     8  O   -0.000000  -0.000000
     9  N    0.000000  -0.005557
    10  C    0.000005  -0.042880
    11  C   -0.000003   0.003180
    12  C   -0.000043  -0.000239
    13  C    0.002657   0.003864
    14  N    0.003095  -0.000022
    15  N   -0.038466   0.000000
    16  C    0.387549  -0.003063
    17  C   -0.043009  -0.037411
    18  C   -0.000219   0.389943
    19  H   -0.000000   0.000000
    20  H    0.000000  -0.000000
    21  H    0.000000   0.003751
    22  H   -0.000000  -0.000024
    23  H    0.000001   0.000002
    24  H   -0.000043   0.000001
    25  H    0.452570   0.000712
    26  H    0.000712   0.475915
 Mulliken charges:
               1
     1  N   -0.818045
     2  C    0.648554
     3  N   -0.315326
     4  O   -0.194050
     5  N   -0.257430
     6  C    0.192770
     7  C    0.657760
     8  O   -0.508263
     9  N   -0.825993
    10  C    0.356120
    11  C   -0.215092
    12  C   -0.190942
    13  C    0.458678
    14  N   -0.663713
    15  N   -0.326575
    16  C    0.104024
    17  C   -0.151172
    18  C   -0.266183
    19  H    0.347992
    20  H    0.353070
    21  H    0.357852
    22  H    0.226558
    23  H    0.217317
    24  H    0.365061
    25  H    0.235195
    26  H    0.211835
 Sum of Mulliken charges =  -0.00000
 Mulliken charges with hydrogens summed into heavy atoms:
               1
     1  N   -0.116983
     2  C    0.648554
     3  N   -0.315326
     4  O   -0.194050
     5  N   -0.257430
     6  C    0.192770
     7  C    0.657760
     8  O   -0.508263
     9  N   -0.468141
    10  C    0.356120
    11  C    0.011466
    12  C    0.026374
    13  C    0.458678
    14  N   -0.298652
    15  N   -0.326575
    16  C    0.339219
    17  C   -0.151172
    18  C   -0.054348
 Electronic spatial extent (au):  <R**2>=           6195.9805
 Charge=              0.0000 electrons
 Dipole moment (field-independent basis, Debye):
    X=             -0.4186    Y=              4.0172    Z=             -0.3213  Tot=              4.0518
 Quadrupole moment (field-independent basis, Debye-Ang):
   XX=           -109.7541   YY=            -92.9988   ZZ=           -104.7718
   XY=             -8.8706   XZ=              6.0785   YZ=              9.0551
 Traceless Quadrupole moment (field-independent basis, Debye-Ang):
   XX=             -7.2459   YY=              9.5094   ZZ=             -2.2635
   XY=             -8.8706   XZ=              6.0785   YZ=              9.0551
 Octapole moment (field-independent basis, Debye-Ang**2):
  XXX=            -74.6204  YYY=             19.5914  ZZZ=              1.2810  XYY=             19.2945
  XXY=            167.6274  XXZ=              0.3145  XZZ=            -10.9922  YZZ=             -0.6415
  YYZ=              0.3293  XYZ=              9.0160
 Hexadecapole moment (field-independent basis, Debye-Ang**3):
 XXXX=          -7523.1962 YYYY=           -837.6632 ZZZZ=           -188.3201 XXXY=           -122.3220
 XXXZ=            153.8272 YYYX=            -85.3906 YYYZ=             32.7908 ZZZX=              9.2311
 ZZZY=             -3.7427 XXYY=          -1107.2268 XXZZ=          -1229.7090 YYZZ=           -182.6417
 XXYZ=            128.3279 YYXZ=             13.6381 ZZXY=             16.9285
 N-N= 1.192964119650D+03 E-N=-4.389283512795D+03  KE= 8.526632149446D+02
 No NMR shielding tensors so no spin-rotation constants.
 Leave Link  601 at Tue Jan 30 18:21:05 2024, MaxMem=  1073741824 cpu:               0.8 elap:               0.2
 (Enter /share/software/user/restricted/gaussian/g16.B01/l9999.exe)
 Electronic transition elements 
                 1             2             3             4             5 
      1  -0.859893D+03 -0.859852D+03 -0.859848D+03 -0.859828D+03 -0.859821D+03
      2   0.214151D+01 -0.737256D+00  0.320187D-01 -0.146555D+00 -0.466664D+00
      3   0.271821D+00  0.205023D+00  0.256534D-01 -0.456826D-01 -0.103521D+01
      4   0.243131D+00 -0.127968D+00 -0.469397D-01 -0.706764D-01 -0.676778D+00
      5  -0.134305D+00  0.661723D-01 -0.336889D-02  0.246369D-01  0.539519D-01
      6  -0.140699D-01 -0.115462D-01  0.322893D-02  0.466286D-02  0.133742D+00
      7  -0.142302D-01  0.122568D-01  0.431932D-02  0.886509D-02  0.859157D-01
      8   0.355499D-01  0.215798D-01  0.370573D-01 -0.173899D+00  0.280632D-01
      9  -0.978235D-01  0.139990D+00 -0.796179D-01  0.552947D+00 -0.509635D+00
     10  -0.461208D-01 -0.162482D+00  0.157406D+00  0.206364D+00  0.725253D+00
     11   0.334111D-01 -0.705582D+00 -0.147555D+00  0.442299D-01  0.301403D+00
     12   0.207452D-01  0.252296D-01  0.213726D-01 -0.109999D-02  0.111171D+00
     13  -0.496410D-01  0.387067D-02  0.183097D-03  0.633344D-02  0.654758D-01
     14  -0.831986D-01  0.570841D-01  0.174471D-01  0.442301D-01  0.690791D+00
     15  -0.903738D-03 -0.103901D+00 -0.247855D-01  0.762966D-02  0.491350D+00
     16  -0.299498D-01  0.123835D-02  0.736682D-02  0.970681D-03  0.876837D-01
 1\1\GINC-SH02-14N05\FTS\RB3LYP TD-FC\3-21G*\C10H8N6O2\JENNXU23\30-Jan-
 2024\0\\#p b3lyp/3-21G* opt=(calcfc,ts,noeigen,maxcycle=1000) scrf=(so
 lvent=water) td=(singlets,nstates=5)\\1_top\\0,1\N,-4.3750071283,-1.78
 38718376,-0.9762846067\C,-4.2468728897,-0.5010159213,-0.5662113219\N,-
 5.2233056654,0.405411005,-0.6003293724\O,-4.5737406957,1.6404088349,-0
 .0316978717\N,-3.1688544282,1.3625514864,0.3147897677\C,-3.0220331402,
 0.0476590927,-0.0599556058\C,-1.8236620042,-0.6758281926,0.1055879664\
 O,-1.6232449585,-1.8714774445,-0.2152145241\N,-0.7639944821,0.12103216
 83,0.7456117126\C,0.5604583574,0.0881444451,0.4339747196\C,1.112491921
 6,-0.9179269765,-0.4366015471\C,2.4491530597,-0.9504486394,-0.74542349
 81\C,3.296841351,0.0355265411,-0.1864135018\N,4.6218791541,0.273247544
 5,-0.2942437363\N,5.0298937582,1.4125941198,0.4686219246\C,3.914553872
 8,1.8528836895,1.0389807777\C,2.7695600094,1.0462962218,0.6819240857\C
 ,1.426084809,1.0854169817,0.9890814592\H,-3.5501425155,-2.3748167799,-
 0.9263546779\H,-5.2519524611,-2.1384572988,-1.3342438291\H,-1.11322243
 15,0.8969009926,1.3108792026\H,0.4381841829,-1.6679058285,-0.817881211
 7\H,2.8442882592,-1.7143522425,-1.401337806\H,5.3234898241,-0.23446785
 42,-0.8223580303\H,3.9301540422,2.7173214542,1.6812112935\H,1.01900019
 89,1.8451744383,1.6438882312\\Version=ES64L-G16RevB.01\State=1-A\HF=-8
 59.9696487\RMSD=5.551e-09\RMSF=5.388e-06\Dipole=5.3790924,-1.5044223,-
 0.1092844\PG=C01 [X(C10H8N6O2)]\\@


 THE POLHOLDE ROLLS WITHOUT SLIPPING ON THE HERPOLHOLDE LYING IN
 THE INVARIABLE PLANE.
 H.GOLDSTEIN, "CLASSICAL MECHANICS", PG 161
 Job cpu time:       0 days  4 hours 59 minutes  6.7 seconds.
 Elapsed time:       0 days  0 hours 39 minutes  7.1 seconds.
 File lengths (MBytes):  RWF=    518 Int=      0 D2E=      0 Chk=     18 Scr=      1
 Normal termination of Gaussian 16 at Tue Jan 30 18:21:06 2024.
