 Entering Gaussian System, Link 0=g16
 Initial command:
 /share/software/user/restricted/gaussian/g16.B01/l1.exe "/scratch/users/jennxu23/SyntheMol_private/scripts/gaussian/Gau-4482.inp" -scrdir="/scratch/users/jennxu23/SyntheMol_private/scripts/gaussian/"
 Entering Link 1 = /share/software/user/restricted/gaussian/g16.B01/l1.exe PID=      4483.
  
 Copyright (c) 1988-2017, Gaussian, Inc.  All Rights Reserved.
  
 This is part of the Gaussian(R) 16 program.  It is based on
 the Gaussian(R) 09 system (copyright 2009, Gaussian, Inc.),
 the Gaussian(R) 03 system (copyright 2003, Gaussian, Inc.),
 the Gaussian(R) 98 system (copyright 1998, Gaussian, Inc.),
 the Gaussian(R) 94 system (copyright 1995, Gaussian, Inc.),
 the Gaussian 92(TM) system (copyright 1992, Gaussian, Inc.),
 the Gaussian 90(TM) system (copyright 1990, Gaussian, Inc.),
 the Gaussian 88(TM) system (copyright 1988, Gaussian, Inc.),
 the Gaussian 86(TM) system (copyright 1986, Carnegie Mellon
 University), and the Gaussian 82(TM) system (copyright 1983,
 Carnegie Mellon University). Gaussian is a federally registered
 trademark of Gaussian, Inc.
  
 This software contains proprietary and confidential information,
 including trade secrets, belonging to Gaussian, Inc.
  
 This software is provided under written license and may be
 used, copied, transmitted, or stored only in accord with that
 written license.
  
 The following legend is applicable only to US Government
 contracts under FAR:
  
                    RESTRICTED RIGHTS LEGEND
  
 Use, reproduction and disclosure by the US Government is
 subject to restrictions as set forth in subparagraphs (a)
 and (c) of the Commercial Computer Software - Restricted
 Rights clause in FAR 52.227-19.
  
 Gaussian, Inc.
 340 Quinnipiac St., Bldg. 40, Wallingford CT 06492
  
  
 ---------------------------------------------------------------
 Warning -- This program may not be used in any manner that
 competes with the business of Gaussian, Inc. or will provide
 assistance to any competitor of Gaussian, Inc.  The licensee
 of this program is prohibited from giving any competitor of
 Gaussian, Inc. access to this program.  By using this program,
 the user acknowledges that Gaussian, Inc. is engaged in the
 business of creating and licensing software in the field of
 computational chemistry and represents and warrants to the
 licensee that it is not a competitor of Gaussian, Inc. and that
 it will not use this program in any manner prohibited above.
 ---------------------------------------------------------------
  

 Cite this work as:
 Gaussian 16, Revision B.01,
 M. J. Frisch, G. W. Trucks, H. B. Schlegel, G. E. Scuseria, 
 M. A. Robb, J. R. Cheeseman, G. Scalmani, V. Barone, 
 G. A. Petersson, H. Nakatsuji, X. Li, M. Caricato, A. V. Marenich, 
 J. Bloino, B. G. Janesko, R. Gomperts, B. Mennucci, H. P. Hratchian, 
 J. V. Ortiz, A. F. Izmaylov, J. L. Sonnenberg, D. Williams-Young, 
 F. Ding, F. Lipparini, F. Egidi, J. Goings, B. Peng, A. Petrone, 
 T. Henderson, D. Ranasinghe, V. G. Zakrzewski, J. Gao, N. Rega, 
 G. Zheng, W. Liang, M. Hada, M. Ehara, K. Toyota, R. Fukuda, 
 J. Hasegawa, M. Ishida, T. Nakajima, Y. Honda, O. Kitao, H. Nakai, 
 T. Vreven, K. Throssell, J. A. Montgomery, Jr., J. E. Peralta, 
 F. Ogliaro, M. J. Bearpark, J. J. Heyd, E. N. Brothers, K. N. Kudin, 
 V. N. Staroverov, T. A. Keith, R. Kobayashi, J. Normand, 
 K. Raghavachari, A. P. Rendell, J. C. Burant, S. S. Iyengar, 
 J. Tomasi, M. Cossi, J. M. Millam, M. Klene, C. Adamo, R. Cammi, 
 J. W. Ochterski, R. L. Martin, K. Morokuma, O. Farkas, 
 J. B. Foresman, and D. J. Fox, Gaussian, Inc., Wallingford CT, 2016.
 
 ******************************************
 Gaussian 16:  ES64L-G16RevB.01 20-Dec-2017
                30-Jan-2024 
 ******************************************
 %Mem=8GB
 %CPU=8,10,12-15,17,19
 SetSPE:  set environment variable "MP_BIND" = "yes"
 SetSPE:  set environment variable "MP_BLIST" = "8,10,12,13,14,15,17,19"
 Will use up to    8 processors via shared memory.
 %GPUCPU=0=8
 Will use    1 GPUs:
 Thread  CPU   GPU
      0    8     0
      1   10    -1
      2   12    -1
      3   13    -1
      4   14    -1
      5   15    -1
      6   17    -1
      7   19    -1
 SetGPE:  set environment variable "MP_BIND" = "yes"
 SetGPE:  set environment variable "MP_BLIST" = "8,10,12,13,14,15,17,19"
 Properties for Device   0
 Minimum vector length:                              32
 Maximum vector length:                            1024
 Number of SMPs:                                     56
 Maximum number of threads per SMP:                2048
 Number of ASync Engines:                             2
 Memory:                                           1385447424
   1246902681 words of memory will be used on each GPU.
 ----------------------------------------------------------------------
 #p b3lyp/3-21G* opt=(calcfc,ts,noeigen,maxcycle=1000) scrf=(solvent=wa
 ter) td=(singlets,nstates=5)
 ----------------------------------------------------------------------
 1/5=1,6=1000,10=4,11=1,18=20,26=3,38=1/1,3;
 2/9=110,12=2,17=6,18=5,40=1/2;
 3/5=5,7=1,11=9,25=1,30=1,70=2201,71=2,72=1,74=-5,140=1/1,2,3,8;
 4//1;
 5/5=2,38=5,53=1/2;
 8/6=1,10=1,108=5/1;
 9/15=3,41=5,42=1,48=1,70=2/14;
 10/5=2004,20=4/2;
 11/6=1,8=1,12=-1,16=1,42=3/1,2,10;
 10/6=3,21=1/2,14;
 6/7=2,8=2,9=2,10=2/1;
 7/10=1,12=6,13=8,18=20,25=1,44=2/1,2,3,16;
 1/5=1,6=1000,10=4,11=1,18=20,26=3/3(2);
 2/9=110/2;
 99//99;
 2/9=110/2;
 3/5=5,7=1,11=9,25=1,30=1,70=2205,71=1,72=1,74=-5/1,2,3,8;
 4/5=5,16=3,69=1/1;
 5/5=2,38=5,53=1/2;
 8/6=1,10=1,108=5/1;
 9/15=2,41=5,42=1,48=1,49=4,70=2/14;
 10/5=4/2;
 7/12=6,13=5/1,2,3,16;
 1/5=1,6=1000,11=1,18=20,26=3/3(-8);
 2/9=110/2;
 6/7=2,8=2,9=2,10=2/1;
 99/9=10/99;
 Leave Link    1 at Tue Jan 30 18:21:09 2024, MaxMem=  1073741824 cpu:               5.1 elap:               0.7
 (Enter /share/software/user/restricted/gaussian/g16.B01/l101.exe)
 -----
 2_top
 -----
 Symbolic Z-matrix:
 Charge =  0 Multiplicity = 1
 C                    -1.58282  -2.25613  -1.81761 
 N                    -1.74599  -1.04662  -1.0466 
 C                    -0.72311  -0.33165  -0.46113 
 C                     0.70157  -0.644    -0.50009 
 O                     1.15706  -1.62116  -1.08578 
 N                     1.44435   0.28901   0.19564 
 C                     2.83698   0.34401   0.39318 
 C                     3.73972  -0.59454  -0.11524 
 C                     5.11369  -0.46388   0.12965 
 C                     5.59542   0.60508   0.884 
 C                     4.69984   1.53883   1.39003 
 F                     5.16307   2.56643   2.11512 
 C                     3.33633   1.41187   1.14881 
 F                     2.48718   2.32569   1.64719 
 N                    -1.19835   0.7288    0.17647 
 C                    -2.55723   0.69215  -0.00502 
 C                    -3.53826   1.57994   0.46111 
 C                    -4.8785    1.33213   0.14382 
 C                    -5.2347    0.22201  -0.62257 
 C                    -4.26933  -0.67464  -1.09626 
 C                    -2.93311  -0.40997  -0.76844 
 H                    -1.12429  -3.01625  -1.18006 
 H                    -2.55289  -2.61695  -2.1648 
 H                    -0.95146  -2.03543  -2.68202 
 H                     0.88873   1.03458   0.6183 
 H                     3.40833  -1.44235  -0.70768 
 H                     5.80507  -1.20171  -0.27217 
 H                     6.65752   0.71519   1.07925 
 H                    -3.25433   2.4408    1.05629 
 H                    -5.64776   2.01342   0.49957 
 H                    -6.28336   0.04919  -0.85705 
 H                    -4.55935  -1.53387  -1.69108 
 
 ITRead=  0  0  0  0  0  0  0  0  0  0  0  0  0  0  0  0  0  0  0  0
 ITRead=  0  0  0  0  0  0  0  0  0  0  0  0
 MicOpt= -1 -1 -1 -1 -1 -1 -1 -1 -1 -1 -1 -1 -1 -1 -1 -1 -1 -1 -1 -1
 MicOpt= -1 -1 -1 -1 -1 -1 -1 -1 -1 -1 -1 -1
 NAtoms=     32 NQM=       32 NQMF=       0 NMMI=      0 NMMIF=      0
                NMic=       0 NMicF=      0.
                    Isotopes and Nuclear Properties:
 (Nuclear quadrupole moments (NQMom) in fm**2, nuclear magnetic moments (NMagM)
  in nuclear magnetons)

  Atom         1           2           3           4           5           6           7           8           9          10
 IAtWgt=          12          14          12          12          16          14          12          12          12          12
 AtmWgt=  12.0000000  14.0030740  12.0000000  12.0000000  15.9949146  14.0030740  12.0000000  12.0000000  12.0000000  12.0000000
 NucSpn=           0           2           0           0           0           2           0           0           0           0
 AtZEff=  -0.0000000  -0.0000000  -0.0000000  -0.0000000  -0.0000000  -0.0000000  -0.0000000  -0.0000000  -0.0000000  -0.0000000
 NQMom=    0.0000000   2.0440000   0.0000000   0.0000000   0.0000000   2.0440000   0.0000000   0.0000000   0.0000000   0.0000000
 NMagM=    0.0000000   0.4037610   0.0000000   0.0000000   0.0000000   0.4037610   0.0000000   0.0000000   0.0000000   0.0000000
 AtZNuc=   6.0000000   7.0000000   6.0000000   6.0000000   8.0000000   7.0000000   6.0000000   6.0000000   6.0000000   6.0000000

  Atom        11          12          13          14          15          16          17          18          19          20
 IAtWgt=          12          19          12          19          14          12          12          12          12          12
 AtmWgt=  12.0000000  18.9984032  12.0000000  18.9984032  14.0030740  12.0000000  12.0000000  12.0000000  12.0000000  12.0000000
 NucSpn=           0           1           0           1           2           0           0           0           0           0
 AtZEff=  -0.0000000  -0.0000000  -0.0000000  -0.0000000  -0.0000000  -0.0000000  -0.0000000  -0.0000000  -0.0000000  -0.0000000
 NQMom=    0.0000000   0.0000000   0.0000000   0.0000000   2.0440000   0.0000000   0.0000000   0.0000000   0.0000000   0.0000000
 NMagM=    0.0000000   2.6288670   0.0000000   2.6288670   0.4037610   0.0000000   0.0000000   0.0000000   0.0000000   0.0000000
 AtZNuc=   6.0000000   9.0000000   6.0000000   9.0000000   7.0000000   6.0000000   6.0000000   6.0000000   6.0000000   6.0000000

  Atom        21          22          23          24          25          26          27          28          29          30
 IAtWgt=          12           1           1           1           1           1           1           1           1           1
 AtmWgt=  12.0000000   1.0078250   1.0078250   1.0078250   1.0078250   1.0078250   1.0078250   1.0078250   1.0078250   1.0078250
 NucSpn=           0           1           1           1           1           1           1           1           1           1
 AtZEff=  -0.0000000  -0.0000000  -0.0000000  -0.0000000  -0.0000000  -0.0000000  -0.0000000  -0.0000000  -0.0000000  -0.0000000
 NQMom=    0.0000000   0.0000000   0.0000000   0.0000000   0.0000000   0.0000000   0.0000000   0.0000000   0.0000000   0.0000000
 NMagM=    0.0000000   2.7928460   2.7928460   2.7928460   2.7928460   2.7928460   2.7928460   2.7928460   2.7928460   2.7928460
 AtZNuc=   6.0000000   1.0000000   1.0000000   1.0000000   1.0000000   1.0000000   1.0000000   1.0000000   1.0000000   1.0000000

  Atom        31          32
 IAtWgt=           1           1
 AtmWgt=   1.0078250   1.0078250
 NucSpn=           1           1
 AtZEff=  -0.0000000  -0.0000000
 NQMom=    0.0000000   0.0000000
 NMagM=    2.7928460   2.7928460
 AtZNuc=   1.0000000   1.0000000
 Leave Link  101 at Tue Jan 30 18:21:10 2024, MaxMem=  1073741824 cpu:               3.4 elap:               0.5
 (Enter /share/software/user/restricted/gaussian/g16.B01/l103.exe)

 GradGradGradGradGradGradGradGradGradGradGradGradGradGradGradGradGradGrad
 Berny optimization.
 Initialization pass.
                           ----------------------------
                           !    Initial Parameters    !
                           ! (Angstroms and Degrees)  !
 --------------------------                            --------------------------
 ! Name  Definition              Value          Derivative Info.                !
 --------------------------------------------------------------------------------
 ! R1    R(1,2)                  1.4436         calculate D2E/DX2 analytically  !
 ! R2    R(1,22)                 1.0929         calculate D2E/DX2 analytically  !
 ! R3    R(1,23)                 1.0917         calculate D2E/DX2 analytically  !
 ! R4    R(1,24)                 1.0929         calculate D2E/DX2 analytically  !
 ! R5    R(2,3)                  1.3785         calculate D2E/DX2 analytically  !
 ! R6    R(2,21)                 1.3755         calculate D2E/DX2 analytically  !
 ! R7    R(3,4)                  1.459          calculate D2E/DX2 analytically  !
 ! R8    R(3,15)                 1.3255         calculate D2E/DX2 analytically  !
 ! R9    R(4,5)                  1.2269         calculate D2E/DX2 analytically  !
 ! R10   R(4,6)                  1.3807         calculate D2E/DX2 analytically  !
 ! R11   R(6,7)                  1.4076         calculate D2E/DX2 analytically  !
 ! R12   R(6,25)                 1.0214         calculate D2E/DX2 analytically  !
 ! R13   R(7,8)                  1.398          calculate D2E/DX2 analytically  !
 ! R14   R(7,13)                 1.4002         calculate D2E/DX2 analytically  !
 ! R15   R(8,9)                  1.4017         calculate D2E/DX2 analytically  !
 ! R16   R(8,26)                 1.0861         calculate D2E/DX2 analytically  !
 ! R17   R(9,10)                 1.3942         calculate D2E/DX2 analytically  !
 ! R18   R(9,27)                 1.0881         calculate D2E/DX2 analytically  !
 ! R19   R(10,11)                1.3892         calculate D2E/DX2 analytically  !
 ! R20   R(10,28)                1.0855         calculate D2E/DX2 analytically  !
 ! R21   R(11,12)                1.3403         calculate D2E/DX2 analytically  !
 ! R22   R(11,13)                1.3905         calculate D2E/DX2 analytically  !
 ! R23   R(13,14)                1.3433         calculate D2E/DX2 analytically  !
 ! R24   R(15,16)                1.3714         calculate D2E/DX2 analytically  !
 ! R25   R(16,17)                1.4028         calculate D2E/DX2 analytically  !
 ! R26   R(16,21)                1.3924         calculate D2E/DX2 analytically  !
 ! R27   R(17,18)                1.3994         calculate D2E/DX2 analytically  !
 ! R28   R(17,29)                1.0844         calculate D2E/DX2 analytically  !
 ! R29   R(18,19)                1.3952         calculate D2E/DX2 analytically  !
 ! R30   R(18,30)                1.0874         calculate D2E/DX2 analytically  !
 ! R31   R(19,20)                1.4001         calculate D2E/DX2 analytically  !
 ! R32   R(19,31)                1.0884         calculate D2E/DX2 analytically  !
 ! R33   R(20,21)                1.4011         calculate D2E/DX2 analytically  !
 ! R34   R(20,32)                1.0845         calculate D2E/DX2 analytically  !
 ! A1    A(2,1,22)             108.5767         calculate D2E/DX2 analytically  !
 ! A2    A(2,1,23)             110.2639         calculate D2E/DX2 analytically  !
 ! A3    A(2,1,24)             108.5731         calculate D2E/DX2 analytically  !
 ! A4    A(22,1,23)            109.1751         calculate D2E/DX2 analytically  !
 ! A5    A(22,1,24)            111.0658         calculate D2E/DX2 analytically  !
 ! A6    A(23,1,24)            109.1796         calculate D2E/DX2 analytically  !
 ! A7    A(1,2,3)              125.2764         calculate D2E/DX2 analytically  !
 ! A8    A(1,2,21)             126.3955         calculate D2E/DX2 analytically  !
 ! A9    A(3,2,21)             108.328          calculate D2E/DX2 analytically  !
 ! A10   A(2,3,4)              127.0264         calculate D2E/DX2 analytically  !
 ! A11   A(2,3,15)             110.6833         calculate D2E/DX2 analytically  !
 ! A12   A(4,3,15)             122.2903         calculate D2E/DX2 analytically  !
 ! A13   A(3,4,5)              123.0752         calculate D2E/DX2 analytically  !
 ! A14   A(3,4,6)              111.5427         calculate D2E/DX2 analytically  !
 ! A15   A(5,4,6)              125.3822         calculate D2E/DX2 analytically  !
 ! A16   A(4,6,7)              129.0029         calculate D2E/DX2 analytically  !
 ! A17   A(4,6,25)             114.1512         calculate D2E/DX2 analytically  !
 ! A18   A(7,6,25)             116.8459         calculate D2E/DX2 analytically  !
 ! A19   A(6,7,8)              124.1661         calculate D2E/DX2 analytically  !
 ! A20   A(6,7,13)             117.2801         calculate D2E/DX2 analytically  !
 ! A21   A(8,7,13)             118.5538         calculate D2E/DX2 analytically  !
 ! A22   A(7,8,9)              120.4537         calculate D2E/DX2 analytically  !
 ! A23   A(7,8,26)             121.6968         calculate D2E/DX2 analytically  !
 ! A24   A(9,8,26)             117.8495         calculate D2E/DX2 analytically  !
 ! A25   A(8,9,10)             120.3104         calculate D2E/DX2 analytically  !
 ! A26   A(8,9,27)             119.6774         calculate D2E/DX2 analytically  !
 ! A27   A(10,9,27)            120.0121         calculate D2E/DX2 analytically  !
 ! A28   A(9,10,11)            119.3188         calculate D2E/DX2 analytically  !
 ! A29   A(9,10,28)            120.8757         calculate D2E/DX2 analytically  !
 ! A30   A(11,10,28)           119.8055         calculate D2E/DX2 analytically  !
 ! A31   A(10,11,12)           119.3132         calculate D2E/DX2 analytically  !
 ! A32   A(10,11,13)           120.503          calculate D2E/DX2 analytically  !
 ! A33   A(12,11,13)           120.1838         calculate D2E/DX2 analytically  !
 ! A34   A(7,13,11)            120.8603         calculate D2E/DX2 analytically  !
 ! A35   A(7,13,14)            119.5762         calculate D2E/DX2 analytically  !
 ! A36   A(11,13,14)           119.5635         calculate D2E/DX2 analytically  !
 ! A37   A(3,15,16)            105.6777         calculate D2E/DX2 analytically  !
 ! A38   A(15,16,17)           129.2018         calculate D2E/DX2 analytically  !
 ! A39   A(15,16,21)           111.1732         calculate D2E/DX2 analytically  !
 ! A40   A(17,16,21)           119.625          calculate D2E/DX2 analytically  !
 ! A41   A(16,17,18)           118.8397         calculate D2E/DX2 analytically  !
 ! A42   A(16,17,29)           120.1102         calculate D2E/DX2 analytically  !
 ! A43   A(18,17,29)           121.0501         calculate D2E/DX2 analytically  !
 ! A44   A(17,18,19)           120.6614         calculate D2E/DX2 analytically  !
 ! A45   A(17,18,30)           119.4976         calculate D2E/DX2 analytically  !
 ! A46   A(19,18,30)           119.841          calculate D2E/DX2 analytically  !
 ! A47   A(18,19,20)           121.2895         calculate D2E/DX2 analytically  !
 ! A48   A(18,19,31)           119.3855         calculate D2E/DX2 analytically  !
 ! A49   A(20,19,31)           119.325          calculate D2E/DX2 analytically  !
 ! A50   A(19,20,21)           117.2222         calculate D2E/DX2 analytically  !
 ! A51   A(19,20,32)           120.5674         calculate D2E/DX2 analytically  !
 ! A52   A(21,20,32)           122.2104         calculate D2E/DX2 analytically  !
 ! A53   A(2,21,16)            104.1378         calculate D2E/DX2 analytically  !
 ! A54   A(2,21,20)            133.5            calculate D2E/DX2 analytically  !
 ! A55   A(16,21,20)           122.3622         calculate D2E/DX2 analytically  !
 ! D1    D(22,1,2,3)            60.3914         calculate D2E/DX2 analytically  !
 ! D2    D(22,1,2,21)         -119.6109         calculate D2E/DX2 analytically  !
 ! D3    D(23,1,2,3)           179.9591         calculate D2E/DX2 analytically  !
 ! D4    D(23,1,2,21)           -0.0432         calculate D2E/DX2 analytically  !
 ! D5    D(24,1,2,3)           -60.4699         calculate D2E/DX2 analytically  !
 ! D6    D(24,1,2,21)          119.5278         calculate D2E/DX2 analytically  !
 ! D7    D(1,2,3,4)              0.0029         calculate D2E/DX2 analytically  !
 ! D8    D(1,2,3,15)          -179.9962         calculate D2E/DX2 analytically  !
 ! D9    D(21,2,3,4)          -179.9951         calculate D2E/DX2 analytically  !
 ! D10   D(21,2,3,15)            0.0057         calculate D2E/DX2 analytically  !
 ! D11   D(1,2,21,16)          179.9982         calculate D2E/DX2 analytically  !
 ! D12   D(1,2,21,20)           -0.0025         calculate D2E/DX2 analytically  !
 ! D13   D(3,2,21,16)           -0.0038         calculate D2E/DX2 analytically  !
 ! D14   D(3,2,21,20)          179.9955         calculate D2E/DX2 analytically  !
 ! D15   D(2,3,4,5)              0.0106         calculate D2E/DX2 analytically  !
 ! D16   D(2,3,4,6)           -179.9895         calculate D2E/DX2 analytically  !
 ! D17   D(15,3,4,5)          -179.9903         calculate D2E/DX2 analytically  !
 ! D18   D(15,3,4,6)             0.0096         calculate D2E/DX2 analytically  !
 ! D19   D(2,3,15,16)           -0.0051         calculate D2E/DX2 analytically  !
 ! D20   D(4,3,15,16)          179.9958         calculate D2E/DX2 analytically  !
 ! D21   D(3,4,6,7)            179.9915         calculate D2E/DX2 analytically  !
 ! D22   D(3,4,6,25)            -0.0049         calculate D2E/DX2 analytically  !
 ! D23   D(5,4,6,7)             -0.0086         calculate D2E/DX2 analytically  !
 ! D24   D(5,4,6,25)           179.995          calculate D2E/DX2 analytically  !
 ! D25   D(4,6,7,8)              0.0018         calculate D2E/DX2 analytically  !
 ! D26   D(4,6,7,13)          -179.9979         calculate D2E/DX2 analytically  !
 ! D27   D(25,6,7,8)           179.9981         calculate D2E/DX2 analytically  !
 ! D28   D(25,6,7,13)           -0.0015         calculate D2E/DX2 analytically  !
 ! D29   D(6,7,8,9)           -179.9966         calculate D2E/DX2 analytically  !
 ! D30   D(6,7,8,26)             0.0039         calculate D2E/DX2 analytically  !
 ! D31   D(13,7,8,9)             0.0031         calculate D2E/DX2 analytically  !
 ! D32   D(13,7,8,26)         -179.9964         calculate D2E/DX2 analytically  !
 ! D33   D(6,7,13,11)          179.9984         calculate D2E/DX2 analytically  !
 ! D34   D(6,7,13,14)           -0.0046         calculate D2E/DX2 analytically  !
 ! D35   D(8,7,13,11)           -0.0013         calculate D2E/DX2 analytically  !
 ! D36   D(8,7,13,14)          179.9957         calculate D2E/DX2 analytically  !
 ! D37   D(7,8,9,10)            -0.0015         calculate D2E/DX2 analytically  !
 ! D38   D(7,8,9,27)          -179.9998         calculate D2E/DX2 analytically  !
 ! D39   D(26,8,9,10)          179.998          calculate D2E/DX2 analytically  !
 ! D40   D(26,8,9,27)           -0.0003         calculate D2E/DX2 analytically  !
 ! D41   D(8,9,10,11)           -0.002          calculate D2E/DX2 analytically  !
 ! D42   D(8,9,10,28)         -179.9996         calculate D2E/DX2 analytically  !
 ! D43   D(27,9,10,11)         179.9963         calculate D2E/DX2 analytically  !
 ! D44   D(27,9,10,28)          -0.0013         calculate D2E/DX2 analytically  !
 ! D45   D(9,10,11,12)        -179.9968         calculate D2E/DX2 analytically  !
 ! D46   D(9,10,11,13)           0.0038         calculate D2E/DX2 analytically  !
 ! D47   D(28,10,11,12)          0.0008         calculate D2E/DX2 analytically  !
 ! D48   D(28,10,11,13)       -179.9986         calculate D2E/DX2 analytically  !
 ! D49   D(10,11,13,7)          -0.0022         calculate D2E/DX2 analytically  !
 ! D50   D(10,11,13,14)       -179.9991         calculate D2E/DX2 analytically  !
 ! D51   D(12,11,13,7)         179.9985         calculate D2E/DX2 analytically  !
 ! D52   D(12,11,13,14)          0.0015         calculate D2E/DX2 analytically  !
 ! D53   D(3,15,16,17)        -179.9977         calculate D2E/DX2 analytically  !
 ! D54   D(3,15,16,21)           0.0026         calculate D2E/DX2 analytically  !
 ! D55   D(15,16,17,18)        179.9985         calculate D2E/DX2 analytically  !
 ! D56   D(15,16,17,29)          0.0004         calculate D2E/DX2 analytically  !
 ! D57   D(21,16,17,18)         -0.0018         calculate D2E/DX2 analytically  !
 ! D58   D(21,16,17,29)       -180.0            calculate D2E/DX2 analytically  !
 ! D59   D(15,16,21,2)           0.0008         calculate D2E/DX2 analytically  !
 ! D60   D(15,16,21,20)       -179.9986         calculate D2E/DX2 analytically  !
 ! D61   D(17,16,21,2)        -179.9989         calculate D2E/DX2 analytically  !
 ! D62   D(17,16,21,20)          0.0017         calculate D2E/DX2 analytically  !
 ! D63   D(16,17,18,19)          0.0009         calculate D2E/DX2 analytically  !
 ! D64   D(16,17,18,30)       -179.9977         calculate D2E/DX2 analytically  !
 ! D65   D(29,17,18,19)        179.999          calculate D2E/DX2 analytically  !
 ! D66   D(29,17,18,30)          0.0004         calculate D2E/DX2 analytically  !
 ! D67   D(17,18,19,20)          0.0003         calculate D2E/DX2 analytically  !
 ! D68   D(17,18,19,31)        179.9997         calculate D2E/DX2 analytically  !
 ! D69   D(30,18,19,20)        179.9989         calculate D2E/DX2 analytically  !
 ! D70   D(30,18,19,31)         -0.0017         calculate D2E/DX2 analytically  !
 ! D71   D(18,19,20,21)         -0.0005         calculate D2E/DX2 analytically  !
 ! D72   D(18,19,20,32)        179.9986         calculate D2E/DX2 analytically  !
 ! D73   D(31,19,20,21)       -179.9999         calculate D2E/DX2 analytically  !
 ! D74   D(31,19,20,32)         -0.0008         calculate D2E/DX2 analytically  !
 ! D75   D(19,20,21,2)        -179.9997         calculate D2E/DX2 analytically  !
 ! D76   D(19,20,21,16)         -0.0005         calculate D2E/DX2 analytically  !
 ! D77   D(32,20,21,2)           0.0012         calculate D2E/DX2 analytically  !
 ! D78   D(32,20,21,16)       -179.9996         calculate D2E/DX2 analytically  !
 --------------------------------------------------------------------------------
 Trust Radius=3.00D-01 FncErr=1.00D-07 GrdErr=1.00D-06 EigMax=2.50D+02 EigMin=1.00D-04
 Number of steps in this run=    192 maximum allowed number of steps=    192.
 Search for a saddle point of order  1.
 GradGradGradGradGradGradGradGradGradGradGradGradGradGradGradGradGradGrad

 Leave Link  103 at Tue Jan 30 18:21:10 2024, MaxMem=  1073741824 cpu:               0.1 elap:               0.1
 (Enter /share/software/user/restricted/gaussian/g16.B01/l202.exe)
                          Input orientation:                          
 ---------------------------------------------------------------------
 Center     Atomic      Atomic             Coordinates (Angstroms)
 Number     Number       Type             X           Y           Z
 ---------------------------------------------------------------------
      1          6           0       -1.582823   -2.256128   -1.817614
      2          7           0       -1.745988   -1.046617   -1.046602
      3          6           0       -0.723111   -0.331654   -0.461128
      4          6           0        0.701572   -0.643997   -0.500086
      5          8           0        1.157056   -1.621162   -1.085779
      6          7           0        1.444349    0.289015    0.195640
      7          6           0        2.836981    0.344011    0.393183
      8          6           0        3.739722   -0.594541   -0.115243
      9          6           0        5.113686   -0.463881    0.129654
     10          6           0        5.595420    0.605081    0.883997
     11          6           0        4.699842    1.538829    1.390029
     12          9           0        5.163069    2.566428    2.115122
     13          6           0        3.336327    1.411870    1.148809
     14          9           0        2.487183    2.325686    1.647189
     15          7           0       -1.198354    0.728797    0.176468
     16          6           0       -2.557227    0.692152   -0.005015
     17          6           0       -3.538265    1.579943    0.461105
     18          6           0       -4.878495    1.332127    0.143819
     19          6           0       -5.234704    0.222014   -0.622567
     20          6           0       -4.269331   -0.674636   -1.096260
     21          6           0       -2.933111   -0.409966   -0.768435
     22          1           0       -1.124285   -3.016254   -1.180063
     23          1           0       -2.552887   -2.616948   -2.164802
     24          1           0       -0.951465   -2.035430   -2.682016
     25          1           0        0.888730    1.034581    0.618301
     26          1           0        3.408328   -1.442346   -0.707677
     27          1           0        5.805067   -1.201708   -0.272165
     28          1           0        6.657517    0.715190    1.079249
     29          1           0       -3.254332    2.440801    1.056287
     30          1           0       -5.647763    2.013421    0.499573
     31          1           0       -6.283360    0.049195   -0.857049
     32          1           0       -4.559352   -1.533871   -1.691081
 ---------------------------------------------------------------------
                    Distance matrix (angstroms):
                    1          2          3          4          5
     1  C    0.000000
     2  N    1.443607   0.000000
     3  C    2.506544   1.378488   0.000000
     4  C    3.090843   2.539948   1.459041   0.000000
     5  O    2.906149   2.959612   2.363906   1.226929   0.000000
     6  N    4.437873   3.674959   2.348288   1.380675   2.318049
     7  C    5.584176   5.001044   3.722987   2.516756   2.978487
     8  C    5.829959   5.582546   4.483930   3.062826   2.943816
     9  C    7.200502   6.984145   5.868109   4.460466   4.297848
    10  C    8.186110   7.768629   6.527685   5.236948   5.341840
    11  C    8.010154   7.360057   6.027762   4.931879   5.354112
    12  F    9.177719   8.413422   7.048621   6.086961   6.620410
    13  C    6.815564   6.057550   4.702214   3.726577   4.352229
    14  F    7.040087   6.045550   4.670379   4.076544   4.981563
    15  N    3.610257   2.224387   1.325496   2.439674   3.558586
    16  C    3.595460   2.183192   2.149464   3.556706   4.507257
    17  C    4.871525   3.519127   3.525593   4.883238   5.889479
    18  C    5.252071   4.109517   4.516785   5.954564   6.830938
    19  C    4.572260   3.736357   4.548305   6.000363   6.668318
    20  C    3.199812   2.551097   3.618937   5.006620   5.508330
    21  C    2.516420   1.375486   2.232637   3.652082   4.277519
    22  H    1.092942   2.069734   2.808004   3.069809   2.675759
    23  H    1.091675   2.089832   3.387205   4.153953   3.989932
    24  H    1.092937   2.069686   2.808442   3.070739   2.676836
    25  H    4.782366   3.747670   2.372719   2.025696   3.166838
    26  H    5.177431   5.180584   4.285232   2.829661   2.289795
    27  H    7.621097   7.592248   6.588612   5.138934   4.737289
    28  H    9.226253   8.845457   7.611985   6.309910   6.356175
    29  H    5.754511   4.342733   4.049214   5.252376   6.367758
    30  H    6.334205   5.194068   5.538458   6.955232   7.875856
    31  H    5.322804   4.671667   5.587321   7.028315   7.629036
    32  H    3.065516   2.927078   4.204147   5.466961   5.749028
                    6          7          8          9         10
     6  N    0.000000
     7  C    1.407648   0.000000
     8  C    2.479124   1.397969   0.000000
     9  C    3.746363   2.430128   1.401721   0.000000
    10  C    4.219612   2.813901   2.425116   1.394196   0.000000
    11  C    3.686033   2.427250   2.781896   2.402220   1.389249
    12  F    4.764442   3.648958   4.122156   3.623161   2.355733
    13  C    2.397690   1.400228   2.405461   2.777791   2.413407
    14  F    2.709710   2.371060   3.633559   4.121058   3.633743
    15  N    2.679115   4.059429   5.120637   6.423902   6.831638
    16  C    4.026834   5.420078   6.428008   7.758701   8.201437
    17  C    5.153970   6.494298   7.617720   8.896253   9.195292
    18  C    6.408520   7.782489   8.834752  10.152317  10.525178
    19  C    6.729316   8.136260   9.025766  10.398339  10.941118
    20  C    5.936646   7.331832   8.069308   9.465109  10.142603
    21  C    4.536537   5.933954   6.707267   8.096938   8.746239
    22  H    4.406273   5.427533   5.536886   6.866021   7.907519
    23  H    5.476696   6.660424   6.920098   8.287133   9.277476
    24  H    4.407252   5.428712   5.538205   6.867409   7.908885
    25  H    1.021384   2.079242   3.364563   4.509370   4.733708
    26  H    2.769622   2.174719   1.086082   2.136998   3.392456
    27  H    4.632165   3.411959   2.158454   1.088051   2.155261
    28  H    5.304669   3.899353   3.414050   2.162257   1.085494
    29  H    5.239132   6.476136   7.713791   8.906152   9.039782
    30  H    7.305067   8.648071   9.762394  11.049102  11.337565
    31  H    7.802765   9.210354  10.071089  11.451178  12.018555
    32  H    6.551874   7.910521   8.499425   9.900889  10.692312
                   11         12         13         14         15
    11  C    0.000000
    12  F    1.340260   0.000000
    13  C    1.390496   2.367224   0.000000
    14  F    2.362443   2.727139   1.343313   0.000000
    15  N    6.075986   6.899491   4.687790   4.277413   0.000000
    16  C    7.438284   8.222582   6.048412   5.553763   1.371427
    17  C    8.290416   8.911910   6.910948   6.186190   2.506122
    18  C    9.661280  10.307403   8.276453   7.582908   3.729412
    19  C   10.221534  11.004767   8.832672   8.318940   4.145769
    20  C    9.566981  10.477960   8.199992   7.885361   3.608373
    21  C    8.168155   9.095161   6.804467   6.534418   2.280132
    22  H    7.827811   9.030803   6.702909   7.040766   3.983851
    23  H    9.083468  10.233334   7.867289   8.022669   4.302361
    24  H    7.829059   9.032008   6.704048   7.041708   3.984073
    25  H    3.921021   4.780900   2.532690   2.297958   2.155143
    26  H    3.867272   5.207455   3.405624   4.537838   5.168859
    27  H    3.390421   4.506678   3.865829   5.209106   7.278463
    28  H    2.146499   2.594898   3.394187   4.506434   7.907586
    29  H    8.012105   8.484666   6.671135   5.772989   2.816395
    30  H   10.396686  10.944857   9.027582   8.221428   4.642402
    31  H   11.309248  12.090947   9.920621   9.400853   5.233287
    32  H   10.230709  11.217179   8.892925   8.700223   4.461357
                   16         17         18         19         20
    16  C    0.000000
    17  C    1.402811   0.000000
    18  C    2.412469   1.399393   0.000000
    19  C    2.787702   2.428214   1.395200   0.000000
    20  C    2.447493   2.836013   2.436386   1.400111   0.000000
    21  C    1.392395   2.416137   2.766156   2.391235   1.401072
    22  H    4.145640   5.444792   5.895352   5.262388   3.921927
    23  H    3.951561   5.047797   5.131606   4.198849   2.803665
    24  H    4.145420   5.444417   5.894689   5.261513   3.921048
    25  H    3.518579   4.463229   5.794356   6.300513   5.697959
    26  H    6.374768   7.665210   8.780330   8.802235   7.725725
    27  H    8.578229   9.776150  10.987805  11.136709  10.121779
    28  H    9.278344  10.251043  11.590308  12.023490  11.227665
    29  H    2.161040   1.084405   2.167871   3.415178   3.920412
    30  H    3.398791   2.153919   1.087426   2.153824   3.416491
    31  H    3.876006   3.408265   2.149720   1.088360   2.153477
    32  H    3.436059   3.920505   3.417990   2.163551   1.084532
                   21         22         23         24         25
    21  C    0.000000
    22  H    3.199066   0.000000
    23  H    2.639162   1.780467   0.000000
    24  H    3.198569   1.802151   1.780513   0.000000
    25  H    4.314652   4.867814   5.737949   4.868612   0.000000
    26  H    6.425212   4.821298   6.248119   4.822609   3.773826
    27  H    8.787997   7.220303   8.685642   7.221717   5.473964
    28  H    9.831585   8.921021  10.317876   8.922423   5.795981
    29  H    3.399951   6.270391   6.037239   6.270148   4.397073
    30  H    3.853568   6.969983   6.173935   6.969285   6.610444
    31  H    3.382728   6.009772   4.768119   6.008766   7.388269
    32  H    2.181535   3.776014   2.328812   3.774965   6.450720
                   26         27         28         29         30
    26  H    0.000000
    27  H    2.447842   0.000000
    28  H    4.290139   2.495493   0.000000
    29  H    7.910843   9.854205  10.060965   0.000000
    30  H    9.767936  11.920568  12.387145   2.494212   0.000000
    31  H    9.806927  12.167041  13.101874   4.307626   2.470343
    32  H    8.028660  10.466366  11.770775   5.004910   4.308931
                   31         32
    31  H    0.000000
    32  H    2.484735   0.000000
 Stoichiometry    C15H11F2N3O
 Framework group  C1[X(C15H11F2N3O)]
 Deg. of freedom    90
 Full point group                 C1      NOp   1
 Largest Abelian subgroup         C1      NOp   1
 Largest concise Abelian subgroup C1      NOp   1
                         Standard orientation:                         
 ---------------------------------------------------------------------
 Center     Atomic      Atomic             Coordinates (Angstroms)
 Number     Number       Type             X           Y           Z
 ---------------------------------------------------------------------
      1          6           0       -2.621202    2.650473   -0.000275
      2          7           0       -2.482060    1.213588   -0.000117
      3          6           0       -1.285203    0.529656    0.000073
      4          6           0        0.055570    1.105093    0.000212
      5          8           0        0.265396    2.313947    0.000363
      6          7           0        1.027942    0.124912    0.000154
      7          6           0        2.428464    0.266381    0.000085
      8          6           0        3.093332    1.496124    0.000099
      9          6           0        4.494151    1.546402   -0.000047
     10          6           0        5.240500    0.368800   -0.000175
     11          6           0        4.581550   -0.854228   -0.000116
     12          9           0        5.299136   -1.986203   -0.000176
     13          6           0        3.192067   -0.907309   -0.000010
     14          9           0        2.574380   -2.100185    0.000063
     15          7           0       -1.493975   -0.779296    0.000100
     16          6           0       -2.856270   -0.937294    0.000039
     17          6           0       -3.611780   -2.119277    0.000080
     18          6           0       -5.008183   -2.027836    0.000031
     19          6           0       -5.639741   -0.783763   -0.000073
     20          6           0       -4.902034    0.406236   -0.000140
     21          6           0       -3.505423    0.294519   -0.000086
     22          1           0       -2.145195    3.046280   -0.900984
     23          1           0       -3.676986    2.928099   -0.001143
     24          1           0       -2.146594    3.046277    0.901166
     25          1           0        0.660615   -0.828133    0.000106
     26          1           0        2.551851    2.437597    0.000229
     27          1           0        4.998609    2.510444   -0.000031
     28          1           0        6.325627    0.397032   -0.000282
     29          1           0       -3.114358   -3.082867    0.000178
     30          1           0       -5.604319   -2.937296    0.000099
     31          1           0       -6.727090   -0.736846   -0.000114
     32          1           0       -5.405113    1.367028   -0.000243
 ---------------------------------------------------------------------
 Rotational constants (GHZ):           0.7910781           0.1399162           0.1189802
 Leave Link  202 at Tue Jan 30 18:21:10 2024, MaxMem=  1073741824 cpu:               0.1 elap:               0.0
 (Enter /share/software/user/restricted/gaussian/g16.B01/l301.exe)
 Standard basis: 3-21G* (6D, 7F)
 Ernie: Thresh=  0.10000D-02 Tol=  0.10000D-05 Strict=F.
 There are   211 symmetry adapted cartesian basis functions of A   symmetry.
 There are   211 symmetry adapted basis functions of A   symmetry.
   211 basis functions,   348 primitive gaussians,   211 cartesian basis functions
    74 alpha electrons       74 beta electrons
       nuclear repulsion energy      1552.9867243328 Hartrees.
 IExCor=  402 DFT=T Ex+Corr=B3LYP ExCW=0 ScaHFX=  0.200000
 ScaDFX=  0.800000  0.720000  1.000000  0.810000 ScalE2=  1.000000  1.000000
 IRadAn=      5 IRanWt=     -1 IRanGd=            0 ICorTp=0 IEmpDi=  4
 NAtoms=   32 NActive=   32 NUniq=   32 SFac= 1.00D+00 NAtFMM=   60 NAOKFM=F Big=F
 Integral buffers will be    131072 words long.
 Regular integral format.
 Two-electron integral symmetry is turned on.
 Force inversion solution in PCM.
 ------------------------------------------------------------------------------
 Polarizable Continuum Model (PCM)
 =================================
 Model                : PCM.
 Atomic radii         : UFF (Universal Force Field).
 Polarization charges : Total charges.
 Charge compensation  : None.
 Solution method      : Matrix inversion.
 Cavity type          : Scaled VdW (van der Waals Surface) (Alpha=1.100).
 Cavity algorithm     : GePol (No added spheres)
                        Default sphere list used, NSphG=   32.
                        Lebedev-Laikov grids with approx.  5.0 points / Ang**2.
                        Smoothing algorithm: York/Karplus (Gamma=1.0000).
                        Polarization charges: spherical gaussians, with
                                              point-specific exponents (IZeta= 3).
                        Self-potential: point-specific (ISelfS= 7).
                        Self-field    : sphere-specific E.n sum rule (ISelfD= 2).
 1st derivatives      : Analytical E(r).r(x)/FMM algorithm (CHGder, D1EAlg=3).
                        Cavity 1st derivative terms included.
 2nd derivatives      : Analytical E(r).r(xy)/FMM algorithm (CHGder, D2EAlg=3).
                        Cavity 2nd derivative terms included.
 Solvent              : Water, Eps=  78.355300 Eps(inf)=   1.777849
 ------------------------------------------------------------------------------
 GePol: Number of generator spheres                  =      32
 GePol: Total number of spheres                      =      32
 GePol: Number of exposed spheres                    =      32 (100.00%)
 GePol: Number of points                             =    2614
 GePol: Average weight of points                     =       0.13
 GePol: Minimum weight of points                     =   0.10D-08
 GePol: Maximum weight of points                     =    0.20577
 GePol: Number of points with low weight             =     135
 GePol: Fraction of low-weight points (<1% of avg)   =       5.16%
 GePol: Cavity surface area                          =    335.617 Ang**2
 GePol: Cavity volume                                =    360.839 Ang**3
 Leave Link  301 at Tue Jan 30 18:21:11 2024, MaxMem=  1073741824 cpu:               0.6 elap:               0.1
 (Enter /share/software/user/restricted/gaussian/g16.B01/l302.exe)
 NPDir=0 NMtPBC=     1 NCelOv=     1 NCel=       1 NClECP=     1 NCelD=      1
         NCelK=      1 NCelE2=     1 NClLst=     1 CellRange=     0.0.
 One-electron integrals computed using PRISM.
 One-electron integral symmetry used in STVInt
 NBasis=   211 RedAO= T EigKep=  1.42D-03  NBF=   211
 NBsUse=   211 1.00D-06 EigRej= -1.00D+00 NBFU=   211
 Precomputing XC quadrature grid using
 IXCGrd= 4 IRadAn=           5 IRanWt=          -1 IRanGd=           0 AccXCQ= 0.00D+00.
 Generated NRdTot=       0 NPtTot=           0 NUsed=           0 NTot=          32
 NSgBfM=   203   203   203   203   203 MxSgAt=    32 MxSgA2=    32.
 Leave Link  302 at Tue Jan 30 18:21:11 2024, MaxMem=  1073741824 cpu:               2.4 elap:               0.3
 (Enter /share/software/user/restricted/gaussian/g16.B01/l303.exe)
 DipDrv:  MaxL=1.
 Leave Link  303 at Tue Jan 30 18:21:11 2024, MaxMem=  1073741824 cpu:               0.4 elap:               0.1
 (Enter /share/software/user/restricted/gaussian/g16.B01/l308.exe)
 Leave Link  308 at Tue Jan 30 18:21:11 2024, MaxMem=  1073741824 cpu:               0.5 elap:               0.1
 (Enter /share/software/user/restricted/gaussian/g16.B01/l401.exe)
 ExpMin= 1.83D-01 ExpMax= 4.14D+02 ExpMxC= 4.14D+02 IAcc=3 IRadAn=         5 AccDes= 0.00D+00
 Harris functional with IExCor=  402 and IRadAn=       5 diagonalized for initial guess.
 HarFok:  IExCor=  402 AccDes= 0.00D+00 IRadAn=         5 IDoV= 1 UseB2=F ITyADJ=14
 ICtDFT=  3500011 ScaDFX=  1.000000  1.000000  1.000000  1.000000
 FoFCou: FMM=F IPFlag=           0 FMFlag=      100000 FMFlg1=           0
         NFxFlg=           0 DoJE=T BraDBF=F KetDBF=T FulRan=T
         wScrn=  0.000000 ICntrl=       500 IOpCl=  0 I1Cent=   200000004 NGrid=           0
         NMat0=    1 NMatS0=      1 NMatT0=    0 NMatD0=    1 NMtDS0=    0 NMtDT0=    0
 Petite list used in FoFCou.
 Harris En= -1011.68759889867    
 JPrj=0 DoOrth=F DoCkMO=F.
 Leave Link  401 at Tue Jan 30 18:21:13 2024, MaxMem=  1073741824 cpu:              11.9 elap:               1.5
 (Enter /share/software/user/restricted/gaussian/g16.B01/l502.exe)
 Integral symmetry usage will be decided dynamically.
 Closed shell SCF:
 Using DIIS extrapolation, IDIIS=  1040.
 NGot=  1073741824 LenX=  1073648374 LenY=  1073603412
 Requested convergence on RMS density matrix=1.00D-08 within 128 cycles.
 Requested convergence on MAX density matrix=1.00D-06.
 Requested convergence on             energy=1.00D-06.
 No special actions if energy rises.
 Fock matrices will be formed incrementally for  20 cycles.

 Cycle   1  Pass 1  IDiag  1:
 FoFJK:  IHMeth= 1 ICntrl=       0 DoSepK=F KAlg= 0 I1Cent=           0 FoldK=F
 IRaf= 660000000 NMat=       1 IRICut=       1 DoRegI=T DoRafI=F ISym2E= 0 IDoP0=0 IntGTp=1.
 FoFCou: FMM=F IPFlag=           0 FMFlag=      100000 FMFlg1=           0
         NFxFlg=           0 DoJE=F BraDBF=F KetDBF=F FulRan=T
         wScrn=  0.000000 ICntrl=         0 IOpCl=  0 I1Cent=           0 NGrid=           0
         NMat0=    1 NMatS0=      1 NMatT0=    0 NMatD0=    1 NMtDS0=    0 NMtDT0=    0
 Symmetry not used in FoFCou.
 Inv3:  Mode=1 IEnd=    20498988.
 Iteration    1 A*A^-1 deviation from unit magnitude is 7.99D-15 for   2611.
 Iteration    1 A*A^-1 deviation from orthogonality  is 3.14D-15 for   2144    421.
 Iteration    1 A^-1*A deviation from unit magnitude is 7.99D-15 for   2611.
 Iteration    1 A^-1*A deviation from orthogonality  is 1.76D-15 for   2128    467.
 E= -1011.51275289606    
 DIIS: error= 3.39D-02 at cycle   1 NSaved=   1.
 NSaved= 1 IEnMin= 1 EnMin= -1011.51275289606     IErMin= 1 ErrMin= 3.39D-02
 ErrMax= 3.39D-02  0.00D+00 EMaxC= 1.00D-01 BMatC= 3.33D-01 BMatP= 3.33D-01
 IDIUse=3 WtCom= 6.61D-01 WtEn= 3.39D-01
 Coeff-Com:  0.100D+01
 Coeff-En:   0.100D+01
 Coeff:      0.100D+01
 Gap=     0.199 Goal=   None    Shift=    0.000
 GapD=    0.199 DampG=1.000 DampE=0.500 DampFc=0.5000 IDamp=-1.
 Damping current iteration by 5.00D-01
 RMSDP=7.82D-03 MaxDP=2.21D-01              OVMax= 2.83D-01

 Cycle   2  Pass 1  IDiag  1:
 RMSU=  3.91D-03    CP:  9.99D-01
 E= -1011.59989367856     Delta-E=       -0.087140782495 Rises=F Damp=T
 DIIS: error= 1.83D-02 at cycle   2 NSaved=   2.
 NSaved= 2 IEnMin= 2 EnMin= -1011.59989367856     IErMin= 2 ErrMin= 1.83D-02
 ErrMax= 1.83D-02  0.00D+00 EMaxC= 1.00D-01 BMatC= 5.88D-02 BMatP= 3.33D-01
 IDIUse=3 WtCom= 8.17D-01 WtEn= 1.83D-01
 Coeff-Com:  0.218D+00 0.782D+00
 Coeff-En:   0.342D+00 0.658D+00
 Coeff:      0.241D+00 0.759D+00
 Gap=     0.224 Goal=   None    Shift=    0.000
 RMSDP=2.20D-03 MaxDP=6.42D-02 DE=-8.71D-02 OVMax= 2.39D-01

 Cycle   3  Pass 1  IDiag  1:
 RMSU=  1.82D-03    CP:  9.94D-01  6.84D-01
 E= -1011.80056840727     Delta-E=       -0.200674728716 Rises=F Damp=F
 DIIS: error= 1.32D-02 at cycle   3 NSaved=   3.
 NSaved= 3 IEnMin= 3 EnMin= -1011.80056840727     IErMin= 3 ErrMin= 1.32D-02
 ErrMax= 1.32D-02  0.00D+00 EMaxC= 1.00D-01 BMatC= 3.70D-02 BMatP= 5.88D-02
 IDIUse=3 WtCom= 8.68D-01 WtEn= 1.32D-01
 Coeff-Com:  0.529D-01 0.431D+00 0.516D+00
 Coeff-En:   0.000D+00 0.000D+00 0.100D+01
 Coeff:      0.459D-01 0.374D+00 0.580D+00
 Gap=     0.170 Goal=   None    Shift=    0.000
 RMSDP=1.43D-03 MaxDP=5.21D-02 DE=-2.01D-01 OVMax= 6.93D-02

 Cycle   4  Pass 1  IDiag  1:
 RMSU=  8.92D-04    CP:  1.00D+00  8.36D-01  4.94D-01
 E= -1011.82367525219     Delta-E=       -0.023106844912 Rises=F Damp=F
 DIIS: error= 8.13D-03 at cycle   4 NSaved=   4.
 NSaved= 4 IEnMin= 4 EnMin= -1011.82367525219     IErMin= 4 ErrMin= 8.13D-03
 ErrMax= 8.13D-03  0.00D+00 EMaxC= 1.00D-01 BMatC= 1.08D-02 BMatP= 3.70D-02
 IDIUse=3 WtCom= 9.19D-01 WtEn= 8.13D-02
 Coeff-Com:  0.162D-01 0.128D+00 0.364D+00 0.491D+00
 Coeff-En:   0.000D+00 0.000D+00 0.242D+00 0.758D+00
 Coeff:      0.149D-01 0.118D+00 0.354D+00 0.513D+00
 Gap=     0.164 Goal=   None    Shift=    0.000
 RMSDP=6.06D-04 MaxDP=2.66D-02 DE=-2.31D-02 OVMax= 3.07D-02

 Cycle   5  Pass 1  IDiag  1:
 RMSU=  2.80D-04    CP:  9.98D-01  7.94D-01  6.48D-01  5.25D-01
 E= -1011.83187459242     Delta-E=       -0.008199340233 Rises=F Damp=F
 DIIS: error= 1.42D-03 at cycle   5 NSaved=   5.
 NSaved= 5 IEnMin= 5 EnMin= -1011.83187459242     IErMin= 5 ErrMin= 1.42D-03
 ErrMax= 1.42D-03  0.00D+00 EMaxC= 1.00D-01 BMatC= 6.07D-04 BMatP= 1.08D-02
 IDIUse=3 WtCom= 9.86D-01 WtEn= 1.42D-02
 Coeff-Com:  0.304D-02 0.936D-02 0.125D+00 0.283D+00 0.581D+00
 Coeff-En:   0.000D+00 0.000D+00 0.000D+00 0.000D+00 0.100D+01
 Coeff:      0.300D-02 0.923D-02 0.123D+00 0.279D+00 0.586D+00
 Gap=     0.166 Goal=   None    Shift=    0.000
 RMSDP=1.70D-04 MaxDP=5.29D-03 DE=-8.20D-03 OVMax= 8.34D-03

 Cycle   6  Pass 1  IDiag  1:
 RMSU=  8.66D-05    CP:  9.98D-01  7.88D-01  6.39D-01  5.95D-01  5.43D-01
 E= -1011.83239445810     Delta-E=       -0.000519865683 Rises=F Damp=F
 DIIS: error= 8.67D-04 at cycle   6 NSaved=   6.
 NSaved= 6 IEnMin= 6 EnMin= -1011.83239445810     IErMin= 6 ErrMin= 8.67D-04
 ErrMax= 8.67D-04  0.00D+00 EMaxC= 1.00D-01 BMatC= 7.47D-05 BMatP= 6.07D-04
 IDIUse=3 WtCom= 9.91D-01 WtEn= 8.67D-03
 Coeff-Com:  0.119D-02-0.108D-02 0.559D-01 0.141D+00 0.367D+00 0.436D+00
 Coeff-En:   0.000D+00 0.000D+00 0.000D+00 0.000D+00 0.292D-01 0.971D+00
 Coeff:      0.118D-02-0.107D-02 0.554D-01 0.140D+00 0.364D+00 0.440D+00
 Gap=     0.166 Goal=   None    Shift=    0.000
 RMSDP=5.28D-05 MaxDP=2.02D-03 DE=-5.20D-04 OVMax= 3.06D-03

 Cycle   7  Pass 1  IDiag  1:
 RMSU=  3.02D-05    CP:  9.98D-01  7.89D-01  6.43D-01  5.98D-01  5.91D-01
                    CP:  5.34D-01
 E= -1011.83245834820     Delta-E=       -0.000063890097 Rises=F Damp=F
 DIIS: error= 2.05D-04 at cycle   7 NSaved=   7.
 NSaved= 7 IEnMin= 7 EnMin= -1011.83245834820     IErMin= 7 ErrMin= 2.05D-04
 ErrMax= 2.05D-04  0.00D+00 EMaxC= 1.00D-01 BMatC= 4.12D-06 BMatP= 7.47D-05
 IDIUse=3 WtCom= 9.98D-01 WtEn= 2.05D-03
 Coeff-Com:  0.346D-03-0.194D-02 0.130D-01 0.356D-01 0.120D+00 0.232D+00
 Coeff-Com:  0.601D+00
 Coeff-En:   0.000D+00 0.000D+00 0.000D+00 0.000D+00 0.000D+00 0.000D+00
 Coeff-En:   0.100D+01
 Coeff:      0.345D-03-0.194D-02 0.130D-01 0.355D-01 0.119D+00 0.232D+00
 Coeff:      0.602D+00
 Gap=     0.166 Goal=   None    Shift=    0.000
 RMSDP=1.36D-05 MaxDP=5.04D-04 DE=-6.39D-05 OVMax= 7.71D-04

 Cycle   8  Pass 1  IDiag  1:
 RMSU=  7.81D-06    CP:  9.98D-01  7.89D-01  6.43D-01  5.96D-01  6.02D-01
                    CP:  5.98D-01  6.99D-01
 E= -1011.83246186608     Delta-E=       -0.000003517878 Rises=F Damp=F
 DIIS: error= 3.57D-05 at cycle   8 NSaved=   8.
 NSaved= 8 IEnMin= 8 EnMin= -1011.83246186608     IErMin= 8 ErrMin= 3.57D-05
 ErrMax= 3.57D-05  0.00D+00 EMaxC= 1.00D-01 BMatC= 4.64D-07 BMatP= 4.12D-06
 IDIUse=1 WtCom= 1.00D+00 WtEn= 0.00D+00
 Coeff-Com:  0.131D-03-0.920D-03 0.154D-02 0.476D-02 0.285D-01 0.837D-01
 Coeff-Com:  0.330D+00 0.552D+00
 Coeff:      0.131D-03-0.920D-03 0.154D-02 0.476D-02 0.285D-01 0.837D-01
 Coeff:      0.330D+00 0.552D+00
 Gap=     0.166 Goal=   None    Shift=    0.000
 RMSDP=4.03D-06 MaxDP=1.14D-04 DE=-3.52D-06 OVMax= 1.80D-04

 Cycle   9  Pass 1  IDiag  1:
 RMSU=  2.45D-06    CP:  9.98D-01  7.88D-01  6.43D-01  5.96D-01  6.04D-01
                    CP:  5.92D-01  7.27D-01  6.23D-01
 E= -1011.83246227225     Delta-E=       -0.000000406176 Rises=F Damp=F
 DIIS: error= 9.37D-06 at cycle   9 NSaved=   9.
 NSaved= 9 IEnMin= 9 EnMin= -1011.83246227225     IErMin= 9 ErrMin= 9.37D-06
 ErrMax= 9.37D-06  0.00D+00 EMaxC= 1.00D-01 BMatC= 2.12D-08 BMatP= 4.64D-07
 IDIUse=1 WtCom= 1.00D+00 WtEn= 0.00D+00
 Coeff-Com:  0.586D-04-0.334D-03 0.118D-03 0.202D-03 0.602D-02 0.259D-01
 Coeff-Com:  0.121D+00 0.260D+00 0.588D+00
 Coeff:      0.586D-04-0.334D-03 0.118D-03 0.202D-03 0.602D-02 0.259D-01
 Coeff:      0.121D+00 0.260D+00 0.588D+00
 Gap=     0.166 Goal=   None    Shift=    0.000
 RMSDP=1.02D-06 MaxDP=4.39D-05 DE=-4.06D-07 OVMax= 3.89D-05

 Cycle  10  Pass 1  IDiag  1:
 RMSU=  7.82D-07    CP:  9.98D-01  7.88D-01  6.43D-01  5.96D-01  6.04D-01
                    CP:  5.93D-01  7.27D-01  6.68D-01  8.28D-01
 E= -1011.83246229098     Delta-E=       -0.000000018726 Rises=F Damp=F
 DIIS: error= 3.31D-06 at cycle  10 NSaved=  10.
 NSaved=10 IEnMin=10 EnMin= -1011.83246229098     IErMin=10 ErrMin= 3.31D-06
 ErrMax= 3.31D-06  0.00D+00 EMaxC= 1.00D-01 BMatC= 2.24D-09 BMatP= 2.12D-08
 IDIUse=1 WtCom= 1.00D+00 WtEn= 0.00D+00
 Coeff-Com:  0.118D-04-0.200D-04-0.162D-03-0.683D-03-0.216D-02-0.234D-02
 Coeff-Com: -0.233D-02 0.204D-01 0.257D+00 0.731D+00
 Coeff:      0.118D-04-0.200D-04-0.162D-03-0.683D-03-0.216D-02-0.234D-02
 Coeff:     -0.233D-02 0.204D-01 0.257D+00 0.731D+00
 Gap=     0.166 Goal=   None    Shift=    0.000
 RMSDP=3.69D-07 MaxDP=1.12D-05 DE=-1.87D-08 OVMax= 1.70D-05

 Cycle  11  Pass 1  IDiag  1:
 RMSU=  1.97D-07    CP:  9.98D-01  7.88D-01  6.43D-01  5.96D-01  6.04D-01
                    CP:  5.94D-01  7.32D-01  6.75D-01  8.86D-01  8.55D-01
 E= -1011.83246229326     Delta-E=       -0.000000002284 Rises=F Damp=F
 DIIS: error= 9.84D-07 at cycle  11 NSaved=  11.
 NSaved=11 IEnMin=11 EnMin= -1011.83246229326     IErMin=11 ErrMin= 9.84D-07
 ErrMax= 9.84D-07  0.00D+00 EMaxC= 1.00D-01 BMatC= 1.84D-10 BMatP= 2.24D-09
 IDIUse=1 WtCom= 1.00D+00 WtEn= 0.00D+00
 Coeff-Com:  0.291D-05 0.105D-04-0.919D-04-0.375D-03-0.148D-02-0.259D-02
 Coeff-Com: -0.769D-02-0.412D-02 0.953D-01 0.351D+00 0.570D+00
 Coeff:      0.291D-05 0.105D-04-0.919D-04-0.375D-03-0.148D-02-0.259D-02
 Coeff:     -0.769D-02-0.412D-02 0.953D-01 0.351D+00 0.570D+00
 Gap=     0.166 Goal=   None    Shift=    0.000
 RMSDP=9.53D-08 MaxDP=2.31D-06 DE=-2.28D-09 OVMax= 4.11D-06

 Cycle  12  Pass 1  IDiag  1:
 RMSU=  6.76D-08    CP:  9.98D-01  7.88D-01  6.43D-01  5.96D-01  6.04D-01
                    CP:  5.94D-01  7.32D-01  6.78D-01  8.97D-01  8.81D-01
                    CP:  7.54D-01
 E= -1011.83246229343     Delta-E=       -0.000000000172 Rises=F Damp=F
 DIIS: error= 3.41D-07 at cycle  12 NSaved=  12.
 NSaved=12 IEnMin=12 EnMin= -1011.83246229343     IErMin=12 ErrMin= 3.41D-07
 ErrMax= 3.41D-07  0.00D+00 EMaxC= 1.00D-01 BMatC= 1.22D-11 BMatP= 1.84D-10
 IDIUse=1 WtCom= 1.00D+00 WtEn= 0.00D+00
 Coeff-Com: -0.663D-06 0.738D-05-0.188D-04-0.671D-04-0.339D-03-0.803D-03
 Coeff-Com: -0.313D-02-0.487D-02 0.589D-02 0.492D-01 0.220D+00 0.734D+00
 Coeff:     -0.663D-06 0.738D-05-0.188D-04-0.671D-04-0.339D-03-0.803D-03
 Coeff:     -0.313D-02-0.487D-02 0.589D-02 0.492D-01 0.220D+00 0.734D+00
 Gap=     0.166 Goal=   None    Shift=    0.000
 RMSDP=2.98D-08 MaxDP=6.84D-07 DE=-1.72D-10 OVMax= 1.86D-06

 Cycle  13  Pass 1  IDiag  1:
 RMSU=  1.83D-08    CP:  9.98D-01  7.88D-01  6.43D-01  5.96D-01  6.04D-01
                    CP:  5.94D-01  7.32D-01  6.78D-01  9.02D-01  8.90D-01
                    CP:  8.31D-01  8.52D-01
 E= -1011.83246229344     Delta-E=       -0.000000000008 Rises=F Damp=F
 DIIS: error= 1.12D-07 at cycle  13 NSaved=  13.
 NSaved=13 IEnMin=13 EnMin= -1011.83246229344     IErMin=13 ErrMin= 1.12D-07
 ErrMax= 1.12D-07  0.00D+00 EMaxC= 1.00D-01 BMatC= 2.31D-12 BMatP= 1.22D-11
 IDIUse=1 WtCom= 1.00D+00 WtEn= 0.00D+00
 Coeff-Com: -0.644D-06 0.233D-05 0.247D-06 0.737D-05-0.517D-05-0.105D-03
 Coeff-Com: -0.685D-03-0.190D-02-0.709D-02-0.108D-01 0.493D-01 0.377D+00
 Coeff-Com:  0.595D+00
 Coeff:     -0.644D-06 0.233D-05 0.247D-06 0.737D-05-0.517D-05-0.105D-03
 Coeff:     -0.685D-03-0.190D-02-0.709D-02-0.108D-01 0.493D-01 0.377D+00
 Coeff:      0.595D+00
 Gap=     0.166 Goal=   None    Shift=    0.000
 RMSDP=9.61D-09 MaxDP=1.81D-07 DE=-7.96D-12 OVMax= 5.24D-07

 Error on total polarization charges =  0.00571
 SCF Done:  E(RB3LYP) =  -1011.83246229     A.U. after   13 cycles
            NFock= 13  Conv=0.96D-08     -V/T= 2.0079
 KE= 1.003913611401D+03 PE=-5.468540234394D+03 EE= 1.899807436366D+03
 Leave Link  502 at Tue Jan 30 18:21:40 2024, MaxMem=  1073741824 cpu:             208.7 elap:              26.6
 (Enter /share/software/user/restricted/gaussian/g16.B01/l801.exe)
 DoSCS=F DFT=T ScalE2(SS,OS)=  1.000000  1.000000
 ExpMin= 1.83D-01 ExpMax= 4.14D+02 ExpMxC= 4.14D+02 IAcc=3 IRadAn=         5 AccDes= 0.00D+00
 HarFok:  IExCor=  205 AccDes= 0.00D+00 IRadAn=         5 IDoV=-2 UseB2=F ITyADJ=14
 ICtDFT= 12500011 ScaDFX=  1.000000  1.000000  1.000000  1.000000
 GSVD:  LWork=        -609 too small for GESVD, short by        2520 words or        2520 for optimal perf.
 Largest valence mixing into a core orbital is  2.49D-04
 Largest core mixing into a valence orbital is  7.00D-05
 Range of M.O.s used for correlation:    22   211
 NBasis=   211 NAE=    74 NBE=    74 NFC=    21 NFV=     0
 NROrb=    190 NOA=    53 NOB=    53 NVA=   137 NVB=   137
 Leave Link  801 at Tue Jan 30 18:21:40 2024, MaxMem=  1073741824 cpu:               1.3 elap:               0.2
 (Enter /share/software/user/restricted/gaussian/g16.B01/l914.exe)
 RHF ground state
 Keep R1, R2, and R3 ints in memory in canonical form, NReq=791049107.
 FoFCou: FMM=F IPFlag=           0 FMFlag=           0 FMFlg1=           0
         NFxFlg=           0 DoJE=F BraDBF=F KetDBF=F FulRan=T
         wScrn=  0.000000 ICntrl=       600 IOpCl=  0 I1Cent=           0 NGrid=           0
         NMat0=    1 NMatS0=  22366 NMatT0=    0 NMatD0=    1 NMtDS0=    0 NMtDT0=    0
 Symmetry not used in FoFCou.
 Two-electron integral symmetry not used.
 MDV=  1073741824 DFT=T DoStab=F Mixed=T DoRPA=T DoScal=F NonHer=T
 NEqPCM:  Using equilibrium solvation (IEInf=0, Eps=  78.3553, EpsInf=   1.7778)
 Making orbital integer symmetry assigments:
 Orbital symmetries:
       Occupied  (A) (A) (A) (A) (A) (A) (A) (A) (A) (A) (A) (A)
                 (A) (A) (A) (A) (A) (A) (A) (A) (A) (A) (A) (A)
                 (A) (A) (A) (A) (A) (A) (A) (A) (A) (A) (A) (A)
                 (A) (A) (A) (A) (A) (A) (A) (A) (A) (A) (A) (A)
                 (A) (A) (A) (A) (A) (A) (A) (A) (A) (A) (A) (A)
                 (A) (A) (A) (A) (A) (A) (A) (A) (A) (A) (A) (A)
                 (A) (A)
       Virtual   (A) (A) (A) (A) (A) (A) (A) (A) (A) (A) (A) (A)
                 (A) (A) (A) (A) (A) (A) (A) (A) (A) (A) (A) (A)
                 (A) (A) (A) (A) (A) (A) (A) (A) (A) (A) (A) (A)
                 (A) (A) (A) (A) (A) (A) (A) (A) (A) (A) (A) (A)
                 (A) (A) (A) (A) (A) (A) (A) (A) (A) (A) (A) (A)
                 (A) (A) (A) (A) (A) (A) (A) (A) (A) (A) (A) (A)
                 (A) (A) (A) (A) (A) (A) (A) (A) (A) (A) (A) (A)
                 (A) (A) (A) (A) (A) (A) (A) (A) (A) (A) (A) (A)
                 (A) (A) (A) (A) (A) (A) (A) (A) (A) (A) (A) (A)
                 (A) (A) (A) (A) (A) (A) (A) (A) (A) (A) (A) (A)
                 (A) (A) (A) (A) (A) (A) (A) (A) (A) (A) (A) (A)
                 (A) (A) (A) (A) (A)
    20 initial guesses have been made.
 Convergence on wavefunction:    0.000001000000000
 Davidson Disk Diagonalization:  ConvIn= 1.00D-06 SkipCon=T Conv= 1.00D-06.
 Max sub-space:  2000 roots to seek:    20 dimension of matrix:        14522
 Iteration     1 Dimension    20 NMult     0 NNew     20
 CISAX will form    20 AO SS matrices at one time.
 NMat=    20 NSing=    20 JSym2X= 0.
 New state      2 was old state      5
 New state      3 was old state      2
 New state      4 was old state      3
 New state      5 was old state      4
 Excitation Energies [eV] at current iteration:
 Root      1 :     4.214485047401790
 Root      2 :     4.489996566500115
 Root      3 :     4.577664093813118
 Root      4 :     4.585641018152167
 Root      5 :     5.046239302314794
 Root      6 :     5.130071324937830
 Root      7 :     5.516686792403009
 Root      8 :     5.805844806832083
 Root      9 :     5.837228161397236
 Root     10 :     5.988382003057915
 Root     11 :     6.131780194151129
 Root     12 :     6.210621701984613
 Root     13 :     6.273119962913945
 Root     14 :     6.473342213778225
 Root     15 :     6.634749875751527
 Root     16 :     7.115654225899120
 Root     17 :     7.212334940962975
 Root     18 :     7.356534777468774
 Root     19 :     7.511438328806230
 Root     20 :     7.829111245426030
 Iteration     2 Dimension    30 NMult    20 NNew     10
 CISAX will form    10 AO SS matrices at one time.
 NMat=    10 NSing=    10 JSym2X= 0.
 Root      1 not converged, maximum delta is    0.086243346498505
 New state      2 was old state      3
 Root      2 not converged, maximum delta is    0.103388851982865
 New state      3 was old state      2
 Root      3 not converged, maximum delta is    0.059997451845279
 Root      4 not converged, maximum delta is    0.045734797533018
 Root      5 not converged, maximum delta is    0.089610410453755
 Excitation Energies [eV] at current iteration:
 Root      1 :     3.976478597203343   Change is   -0.238006450198446
 Root      2 :     4.180003000883358   Change is   -0.397661092929760
 Root      3 :     4.374722358254912   Change is   -0.115274208245202
 Root      4 :     4.558583385909182   Change is   -0.027057632242985
 Root      5 :     4.737149953512501   Change is   -0.309089348802292
 Iteration     3 Dimension    40 NMult    30 NNew     10
 CISAX will form    10 AO SS matrices at one time.
 NMat=    10 NSing=    10 JSym2X= 0.
 Root      1 not converged, maximum delta is    0.005547976051501
 Root      2 not converged, maximum delta is    0.013703418737555
 Root      3 not converged, maximum delta is    0.004886504899171
 Root      4 not converged, maximum delta is    0.006383315306964
 Root      5 not converged, maximum delta is    0.028464279055874
 Excitation Energies [eV] at current iteration:
 Root      1 :     3.962690859243823   Change is   -0.013787737959520
 Root      2 :     4.165348493601720   Change is   -0.014654507281637
 Root      3 :     4.372268526271293   Change is   -0.002453831983619
 Root      4 :     4.555708882408230   Change is   -0.002874503500952
 Root      5 :     4.713272143351743   Change is   -0.023877810160759
 Iteration     4 Dimension    50 NMult    40 NNew     10
 CISAX will form    10 AO SS matrices at one time.
 NMat=    10 NSing=    10 JSym2X= 0.
 Root      1 not converged, maximum delta is    0.001842001428575
 Root      2 not converged, maximum delta is    0.002516550353967
 Root      3 not converged, maximum delta is    0.000639835619346
 Root      4 not converged, maximum delta is    0.001812662739586
 Root      5 not converged, maximum delta is    0.004269249849794
 Excitation Energies [eV] at current iteration:
 Root      1 :     3.961464867674402   Change is   -0.001225991569421
 Root      2 :     4.164105402804029   Change is   -0.001243090797691
 Root      3 :     4.372170625721355   Change is   -0.000097900549938
 Root      4 :     4.555487912760425   Change is   -0.000220969647805
 Root      5 :     4.711606137270204   Change is   -0.001666006081538
 Iteration     5 Dimension    60 NMult    50 NNew     10
 CISAX will form    10 AO SS matrices at one time.
 NMat=    10 NSing=    10 JSym2X= 0.
 Root      1 not converged, maximum delta is    0.000360244233882
 Root      2 not converged, maximum delta is    0.000824879929289
 Root      3 not converged, maximum delta is    0.000242176213606
 Root      4 not converged, maximum delta is    0.000350192564222
 Root      5 not converged, maximum delta is    0.000737066621797
 Excitation Energies [eV] at current iteration:
 Root      1 :     3.961350531189092   Change is   -0.000114336485310
 Root      2 :     4.163949490042495   Change is   -0.000155912761534
 Root      3 :     4.372163191779116   Change is   -0.000007433942239
 Root      4 :     4.555470481803411   Change is   -0.000017430957014
 Root      5 :     4.711383575238465   Change is   -0.000222562031740
 Iteration     6 Dimension    70 NMult    60 NNew     10
 CISAX will form    10 AO SS matrices at one time.
 NMat=    10 NSing=    10 JSym2X= 0.
 Root      1 not converged, maximum delta is    0.000140585205413
 Root      2 not converged, maximum delta is    0.000179837503677
 Root      3 not converged, maximum delta is    0.000093005953448
 Root      4 not converged, maximum delta is    0.000083659699064
 Root      5 not converged, maximum delta is    0.000266381485828
 Excitation Energies [eV] at current iteration:
 Root      1 :     3.961343859170419   Change is   -0.000006672018673
 Root      2 :     4.163940003847249   Change is   -0.000009486195247
 Root      3 :     4.372162421834914   Change is   -0.000000769944202
 Root      4 :     4.555469422710837   Change is   -0.000001059092575
 Root      5 :     4.711364419191892   Change is   -0.000019156046573
 Iteration     7 Dimension    80 NMult    70 NNew     10
 CISAX will form    10 AO SS matrices at one time.
 NMat=    10 NSing=    10 JSym2X= 0.
 Root      1 not converged, maximum delta is    0.000026126990352
 Root      2 not converged, maximum delta is    0.000053084783275
 Root      3 not converged, maximum delta is    0.000028365891953
 Root      4 not converged, maximum delta is    0.000022188276016
 Root      5 not converged, maximum delta is    0.000073347935286
 Excitation Energies [eV] at current iteration:
 Root      1 :     3.961343271986374   Change is   -0.000000587184045
 Root      2 :     4.163939207959316   Change is   -0.000000795887933
 Root      3 :     4.372162346317743   Change is   -0.000000075517171
 Root      4 :     4.555469338673997   Change is   -0.000000084036840
 Root      5 :     4.711363369476646   Change is   -0.000001049715245
 Iteration     8 Dimension    90 NMult    80 NNew     10
 CISAX will form    10 AO SS matrices at one time.
 NMat=    10 NSing=    10 JSym2X= 0.
 Root      1 not converged, maximum delta is    0.000007446780080
 Root      2 not converged, maximum delta is    0.000008064053171
 Root      3 not converged, maximum delta is    0.000005583355338
 Root      4 not converged, maximum delta is    0.000002303503935
 Root      5 not converged, maximum delta is    0.000008255301565
 Excitation Energies [eV] at current iteration:
 Root      1 :     3.961343243846343   Change is   -0.000000028140031
 Root      2 :     4.163939171482713   Change is   -0.000000036476604
 Root      3 :     4.372162339327298   Change is   -0.000000006990445
 Root      4 :     4.555469334528332   Change is   -0.000000004145665
 Root      5 :     4.711363307116192   Change is   -0.000000062360453
 Iteration     9 Dimension   100 NMult    90 NNew     10
 CISAX will form    10 AO SS matrices at one time.
 NMat=    10 NSing=    10 JSym2X= 0.
 Root      1 has converged.
 Root      2 not converged, maximum delta is    0.000001688264518
 Root      3 not converged, maximum delta is    0.000001909356289
 Root      4 not converged, maximum delta is    0.000001069866439
 Root      5 not converged, maximum delta is    0.000002342147569
 Excitation Energies [eV] at current iteration:
 Root      1 :     3.961343242943591   Change is   -0.000000000902752
 Root      2 :     4.163939169869258   Change is   -0.000000001613454
 Root      3 :     4.372162338781012   Change is   -0.000000000546287
 Root      4 :     4.555469334306891   Change is   -0.000000000221441
 Root      5 :     4.711363303073678   Change is   -0.000000004042515
 Iteration    10 Dimension   108 NMult   100 NNew      8
 CISAX will form     8 AO SS matrices at one time.
 NMat=     8 NSing=     8 JSym2X= 0.
 Root      1 has converged.
 Root      2 has converged.
 Root      3 has converged.
 Root      4 has converged.
 Root      5 has converged.
 Excitation Energies [eV] at current iteration:
 Root      1 :     3.961343242941910   Change is   -0.000000000001681
 Root      2 :     4.163939169821757   Change is   -0.000000000047501
 Root      3 :     4.372162338736619   Change is   -0.000000000044392
 Root      4 :     4.555469334294331   Change is   -0.000000000012560
 Root      5 :     4.711363302900167   Change is   -0.000000000173511
 Convergence achieved on expansion vectors.
 ***********************************************************************
 Excited states from <AA,BB:AA,BB> singles matrix:
 ***********************************************************************
 
 1PDM for each excited state written to RWF  633
 Ground to excited state transition densities written to RWF  633
 Ground to excited state transition electric dipole moments (Au):
       state          X           Y           Z        Dip. S.      Osc.
         1        -2.7640     -0.3198      0.0001      7.7422      0.7514
         2         0.7889     -0.8400      0.0001      1.3279      0.1355
         3        -0.0003      0.0004      0.1263      0.0159      0.0017
         4        -0.2557     -0.4201     -0.0000      0.2418      0.0270
         5         1.1675      0.9367      0.0001      2.2404      0.2586
 Ground to excited state transition velocity dipole moments (Au):
       state          X           Y           Z        Dip. S.      Osc.
         1         0.3244      0.0461     -0.0000      0.1074      0.4916
         2        -0.0999      0.1164     -0.0000      0.0235      0.1025
         3         0.0000     -0.0001     -0.0342      0.0012      0.0049
         4         0.0321      0.0609     -0.0000      0.0047      0.0189
         5        -0.1667     -0.1250     -0.0000      0.0434      0.1672
 Ground to excited state transition magnetic dipole moments (Au):
       state          X           Y           Z
         1         0.0000      0.0001     -0.5848
         2         0.0001     -0.0003     -0.9336
         3         0.0146     -0.5101      0.0002
         4         0.0000     -0.0000      0.2382
         5        -0.0000     -0.0000      0.4535
 Ground to excited state transition velocity quadrupole moments (Au):
       state          XX          YY          ZZ          XY          XZ          YZ
         1         0.0929     -0.2003      0.0035     -0.3349     -0.0000     -0.0000
         2         0.5289     -0.0296      0.0094     -0.6630      0.0001      0.0000
         3        -0.0001      0.0000     -0.0000      0.0003      0.0903      0.0200
         4        -0.2874      0.0242      0.0049      0.2075      0.0000      0.0000
         5         2.3796      0.0177      0.0120      0.5969     -0.0000     -0.0001
 <0|del|b> * <b|rxdel|0> + <0|del|b> * <b|delr+rdel|0>
 Rotatory Strengths (R) in cgs (10**-40 erg-esu-cm/Gauss)
       state          XX          YY          ZZ    R(velocity)    E-M Angle
         1         0.0328      0.0260      0.0314      0.0301       90.00
         2        -0.0184     -0.0098     -0.0538     -0.0273       90.00
         3         0.0354      0.0082      0.0533      0.0323       90.00
         4        -0.0025      0.0015     -0.0000     -0.0004       90.00
         5        -0.0049      0.0281      0.0085      0.0106       90.00
 1/2[<0|r|b>*<b|rxdel|0> + (<0|rxdel|b>*<b|r|0>)*]
 Rotatory Strengths (R) in cgs (10**-40 erg-esu-cm/Gauss)
       state          XX          YY          ZZ     R(length)
         1         0.0554      0.0239      0.0255      0.0349
         2        -0.0338     -0.1525      0.0597     -0.0422
         3         0.0028      0.1555     -0.0213      0.0457
         4         0.0020     -0.0029      0.0021      0.0004
         5         0.0230      0.0259     -0.0225      0.0088
  1/2[<0|del|b>*<b|r|0> + (<0|r|b>*<b|del|0>)*] (Au)
       state          X           Y           Z        Dip. S.   Osc.(frdel)
         1        -0.8966     -0.0148     -0.0000      0.9114      0.6076
         2        -0.0788     -0.0978     -0.0000      0.1766      0.1177
         3        -0.0000     -0.0000     -0.0043      0.0043      0.0029
         4        -0.0082     -0.0256      0.0000      0.0338      0.0225
         5        -0.1947     -0.1171     -0.0000      0.3118      0.2078

 Excitation energies and oscillator strengths:
 
 Excited State   1:      Singlet-A      3.9613 eV  312.99 nm  f=0.7514  <S**2>=0.000
      73 -> 75        -0.16319
      74 -> 75         0.67883
 This state for optimization and/or second-order correction.
 Total Energy, E(TD-HF/TD-DFT) =  -1011.68688561    
 Copying the excited state density for this state as the 1-particle RhoCI density.
 
 Excited State   2:      Singlet-A      4.1639 eV  297.76 nm  f=0.1355  <S**2>=0.000
      73 -> 75         0.67251
      74 -> 75         0.17473
 
 Excited State   3:      Singlet-A      4.3722 eV  283.58 nm  f=0.0017  <S**2>=0.000
      69 -> 75        -0.10162
      70 -> 75         0.68745
 
 Excited State   4:      Singlet-A      4.5555 eV  272.17 nm  f=0.0270  <S**2>=0.000
      71 -> 75         0.29674
      72 -> 75         0.61273
      74 -> 77         0.14882
 
 Excited State   5:      Singlet-A      4.7114 eV  263.16 nm  f=0.2586  <S**2>=0.000
      71 -> 75         0.60926
      72 -> 75        -0.29188
      73 -> 75        -0.11331
 SavETr:  write IOETrn=   770 NScale= 10 NData=  16 NLR=1 NState=    5 LETran=     100.
 The selected state is a singlet.
 CISGrd: IGrad=3 NXY=2 DFT=T
 CISAX will form     1 AO SS matrices at one time.
 NMat=     1 NSing=     1 JSym2X= 0.
 GePol: Maximum number of non-zero 1st derivatives   =     207
 GePol: Maximum number of non-zero 2nd derivatives   =     207
 Leave Link  914 at Tue Jan 30 18:23:39 2024, MaxMem=  1073741824 cpu:             934.5 elap:             118.3
 (Enter /share/software/user/restricted/gaussian/g16.B01/l1002.exe)
 Minotr:  Closed shell wavefunction.
          Computing CIS/TDA/TD derivatives.
          Using Z-Vector for PSCF gradient.
          Skipping F1 and S1 gradient terms here.
          IDoAtm=11111111111111111111111111111111
 NEqPCM:  Using equilibrium solvation (IEInf=0, Eps=  78.3553, EpsInf=   1.7778)
          Frozen-core window.
          Direct CPHF calculation.
          Differentiating once with respect to electric field.
                with respect to dipole field.
          Differentiating once with respect to nuclear coordinates.
          Requested convergence is 1.0D-10 RMS, and 1.0D-09 maximum.
          NewPWx=F KeepS1=T KeepF1=T KeepIn=T MapXYZ=F SortEE=F KeepMc=T.
 Keep R1 ints in memory in canonical form, NReq=266319649.
 FoFCou: FMM=F IPFlag=           0 FMFlag=           0 FMFlg1=           0
         NFxFlg=           0 DoJE=F BraDBF=F KetDBF=F FulRan=T
         wScrn=  0.000000 ICntrl=       600 IOpCl=  0 I1Cent=           0 NGrid=           0
         NMat0=    1 NMatS0=  22366 NMatT0=    0 NMatD0=    1 NMtDS0=    0 NMtDT0=    0
 Symmetry not used in FoFCou.
 Two-electron integral symmetry not used.
          MDV=    1073741824 using IRadAn=       5.
          Solving linear equations separately, MaxMat=       0.
          There are     1 degrees of freedom in the 1st order CPHF.  IDoFFX=0 NUNeed=     1.
 LinEq1:  Iter=  0 NonCon=     1 RMS=9.81D-03 Max=5.35D-01 NDo=     1
 AX will form     1 AO Fock derivatives at one time.
 LinEq1:  Iter=  1 NonCon=     1 RMS=5.55D-03 Max=2.58D-01 NDo=     1
 LinEq1:  Iter=  2 NonCon=     1 RMS=4.23D-03 Max=1.69D-01 NDo=     1
 LinEq1:  Iter=  3 NonCon=     1 RMS=2.05D-03 Max=4.47D-02 NDo=     1
 LinEq1:  Iter=  4 NonCon=     1 RMS=7.20D-04 Max=2.64D-02 NDo=     1
 LinEq1:  Iter=  5 NonCon=     1 RMS=4.94D-04 Max=1.65D-02 NDo=     1
 LinEq1:  Iter=  6 NonCon=     1 RMS=2.08D-04 Max=5.64D-03 NDo=     1
 LinEq1:  Iter=  7 NonCon=     1 RMS=1.53D-04 Max=4.14D-03 NDo=     1
 LinEq1:  Iter=  8 NonCon=     1 RMS=9.69D-05 Max=2.17D-03 NDo=     1
 LinEq1:  Iter=  9 NonCon=     1 RMS=3.32D-05 Max=8.23D-04 NDo=     1
 LinEq1:  Iter= 10 NonCon=     1 RMS=2.34D-05 Max=1.05D-03 NDo=     1
 LinEq1:  Iter= 11 NonCon=     1 RMS=7.61D-06 Max=2.11D-04 NDo=     1
 LinEq1:  Iter= 12 NonCon=     1 RMS=3.62D-06 Max=9.81D-05 NDo=     1
 LinEq1:  Iter= 13 NonCon=     1 RMS=1.79D-06 Max=2.97D-05 NDo=     1
 LinEq1:  Iter= 14 NonCon=     1 RMS=7.30D-07 Max=2.53D-05 NDo=     1
 LinEq1:  Iter= 15 NonCon=     1 RMS=4.33D-07 Max=1.00D-05 NDo=     1
 LinEq1:  Iter= 16 NonCon=     1 RMS=1.41D-07 Max=2.97D-06 NDo=     1
 LinEq1:  Iter= 17 NonCon=     1 RMS=5.89D-08 Max=1.15D-06 NDo=     1
 LinEq1:  Iter= 18 NonCon=     1 RMS=2.25D-08 Max=4.09D-07 NDo=     1
 LinEq1:  Iter= 19 NonCon=     1 RMS=1.22D-08 Max=3.68D-07 NDo=     1
 LinEq1:  Iter= 20 NonCon=     1 RMS=4.80D-09 Max=7.30D-08 NDo=     1
 LinEq1:  Iter= 21 NonCon=     1 RMS=2.55D-09 Max=4.42D-08 NDo=     1
 LinEq1:  Iter= 22 NonCon=     1 RMS=7.70D-10 Max=1.36D-08 NDo=     1
 LinEq1:  Iter= 23 NonCon=     1 RMS=4.65D-10 Max=7.56D-09 NDo=     1
 LinEq1:  Iter= 24 NonCon=     1 RMS=1.19D-10 Max=2.87D-09 NDo=     1
 LinEq1:  Iter= 25 NonCon=     1 RMS=8.93D-11 Max=2.24D-09 NDo=     1
 LinEq1:  Iter= 26 NonCon=     0 RMS=2.25D-11 Max=4.88D-10 NDo=     1
 Linear equations converged to 1.000D-10 1.000D-09 after    26 iterations.
          There are     1 degrees of freedom in the 1st order CPHF.  IDoFFX=0 NUNeed=     1.
 End of Minotr F.D. properties file   721 does not exist.
 End of Minotr F.D. properties file   722 does not exist.
 End of Minotr F.D. properties file   788 does not exist.
 Leave Link 1002 at Tue Jan 30 18:24:47 2024, MaxMem=  1073741824 cpu:             455.6 elap:              67.6
 (Enter /share/software/user/restricted/gaussian/g16.B01/l1101.exe)
 Using compressed Sx but separate Hx and Fx, NAtomX=    32.
 Will process     33 centers per pass.
 Leave Link 1101 at Tue Jan 30 18:24:48 2024, MaxMem=  1073741824 cpu:               1.4 elap:               0.2
 (Enter /share/software/user/restricted/gaussian/g16.B01/l1102.exe)
 Use density number 6.
 Symmetrizing basis deriv contribution to polar:
 IMax=3 JMax=2 DiffMx= 0.00D+00
 Leave Link 1102 at Tue Jan 30 18:24:48 2024, MaxMem=  1073741824 cpu:               0.3 elap:               0.1
 (Enter /share/software/user/restricted/gaussian/g16.B01/l1110.exe)
 Forming Gx(P) for the SCF density, NAtomX=    32.
 Integral derivatives from FoFJK, PRISM(SPDF).
 Do as many integral derivatives as possible in FoFJK.
 G2DrvN: MDV=    1073739128.
 G2DrvN: will do    33 centers at a time, making    1 passes.
 Calling FoFCou, ICntrl=  3107 FMM=F I1Cent=   0 AccDes= 0.00D+00.
 FoFJK:  IHMeth= 1 ICntrl=    3107 DoSepK=F KAlg= 0 I1Cent=           0 FoldK=F
 IRaf=         0 NMat=       1 IRICut=       1 DoRegI=T DoRafI=F ISym2E= 0 IDoP0=0 IntGTp=1.
 FoFCou: FMM=F IPFlag=           0 FMFlag=      100000 FMFlg1=           0
         NFxFlg=           0 DoJE=F BraDBF=F KetDBF=F FulRan=T
         wScrn=  0.000000 ICntrl=      3107 IOpCl=  0 I1Cent=           0 NGrid=           0
         NMat0=    1 NMatS0=      1 NMatT0=    0 NMatD0=    1 NMtDS0=    0 NMtDT0=    0
 Symmetry not used in FoFCou.
 NEqPCM:  Using equilibrium solvation (IEInf=0, Eps=  78.3553, EpsInf=   1.7778)
 G2PCM: DoFxE=T DoFxN=T DoGrad=T DoDP/DQ/DG/TGxP=FFFF NFrqRd=   0 IEInf=0 SqF1=F DoCFld=F IF1Alg=4.
 Forming Gx(P) for generalized density number  6 NAtomX=    32.
 Integral derivatives from FoFJK, PRISM(SPDF).
 Do as many integral derivatives as possible in FoFJK.
 G2DrvN: MDV=    1073739128.
 G2DrvN: will do    33 centers at a time, making    1 passes.
 Calling FoFCou, ICntrl=  3107 FMM=F I1Cent=   0 AccDes= 0.00D+00.
[...]
     6  N    0.000090   0.001342  -0.106292   0.185975  -0.062755   7.501996
     7  C    0.000001  -0.000018   0.004248  -0.052990  -0.002838   0.202917
     8  C    0.000000   0.000000   0.000052  -0.000806  -0.008136  -0.054416
     9  C   -0.000000   0.000000   0.000005   0.000440   0.000305   0.004649
    10  C    0.000000   0.000000   0.000000  -0.000003  -0.000001  -0.000383
    11  C   -0.000000  -0.000000  -0.000001  -0.000019   0.000001   0.005553
    12  F    0.000000   0.000000   0.000000   0.000000  -0.000000  -0.000001
    13  C    0.000000  -0.000000  -0.000404   0.002412   0.000020  -0.067727
    14  F   -0.000000  -0.000000  -0.000013   0.000045  -0.000000  -0.003830
    15  N    0.001365  -0.106692   0.384283  -0.030643   0.000717  -0.021781
    16  C    0.002336  -0.032384  -0.133920   0.001494  -0.000048   0.000664
    17  C   -0.000068   0.007062   0.003026  -0.000115  -0.000000   0.000010
    18  C   -0.000002  -0.000347  -0.000205   0.000001  -0.000000  -0.000000
    19  C    0.000127   0.003411  -0.000110   0.000001   0.000000  -0.000000
    20  C    0.000995  -0.054998   0.004901  -0.000052  -0.000000   0.000000
    21  C   -0.032750   0.212293  -0.131659   0.001240  -0.000010  -0.000185
    22  H    0.363140  -0.032301  -0.003346   0.000926   0.002323   0.000010
    23  H    0.353237  -0.024932   0.001544   0.000296   0.000115   0.000001
    24  H    0.363114  -0.032287  -0.003360   0.000936   0.002349   0.000010
    25  H   -0.000017   0.000528  -0.003955  -0.031555   0.000972   0.276200
    26  H   -0.000001  -0.000000   0.000788   0.002174   0.034182  -0.010389
    27  H   -0.000000  -0.000000  -0.000000  -0.000001  -0.000001  -0.000017
    28  H   -0.000000   0.000000   0.000000   0.000000   0.000000  -0.000000
    29  H    0.000000  -0.000010  -0.000062  -0.000004   0.000000  -0.000001
    30  H   -0.000000  -0.000001   0.000001  -0.000000   0.000000  -0.000000
    31  H    0.000000  -0.000015   0.000000  -0.000000   0.000000   0.000000
    32  H    0.001116  -0.004752  -0.000006   0.000000  -0.000000   0.000000
               7          8          9         10         11         12
     1  C    0.000001   0.000000  -0.000000   0.000000  -0.000000   0.000000
     2  N   -0.000018   0.000000   0.000000   0.000000  -0.000000   0.000000
     3  C    0.004248   0.000052   0.000005   0.000000  -0.000001   0.000000
     4  C   -0.052990  -0.000806   0.000440  -0.000003  -0.000019   0.000000
     5  O   -0.002838  -0.008136   0.000305  -0.000001   0.000001  -0.000000
     6  N    0.202917  -0.054416   0.004649  -0.000383   0.005553  -0.000001
     7  C    5.309174   0.330675  -0.053652  -0.018346  -0.067381   0.002118
     8  C    0.330675   5.350010   0.378106  -0.071649  -0.036223  -0.000148
     9  C   -0.053652   0.378106   5.255420   0.349851  -0.020202   0.002011
    10  C   -0.018346  -0.071649   0.349851   5.576028   0.208419  -0.056638
    11  C   -0.067381  -0.036223  -0.020202   0.208419   5.446355   0.317684
    12  F    0.002118  -0.000148   0.002011  -0.056638   0.317684   9.088333
    13  C    0.135634   0.000334  -0.034206  -0.100437  -0.014984  -0.057336
    14  F   -0.064298   0.001773  -0.000190   0.002057  -0.061196  -0.000298
    15  N    0.000811  -0.000010   0.000000   0.000000  -0.000001   0.000000
    16  C   -0.000012   0.000000  -0.000000   0.000000  -0.000000   0.000000
    17  C   -0.000000   0.000000  -0.000000   0.000000   0.000000   0.000000
    18  C   -0.000000   0.000000   0.000000  -0.000000  -0.000000   0.000000
    19  C    0.000000   0.000000   0.000000   0.000000  -0.000000   0.000000
    20  C   -0.000000  -0.000000  -0.000000  -0.000000   0.000000   0.000000
    21  C    0.000003  -0.000000   0.000000  -0.000000   0.000000  -0.000000
    22  H    0.000000  -0.000000  -0.000000   0.000000  -0.000000   0.000000
    23  H    0.000000  -0.000000  -0.000000   0.000000  -0.000000   0.000000
    24  H    0.000000  -0.000000  -0.000000   0.000000  -0.000000   0.000000
    25  H   -0.044980   0.001703  -0.000058  -0.000049   0.001103  -0.000000
    26  H   -0.045560   0.358497  -0.029171   0.003670  -0.000424  -0.000000
    27  H    0.004166  -0.039440   0.392407  -0.038029   0.003698  -0.000001
    28  H   -0.000481   0.004017  -0.034423   0.385861  -0.047347  -0.001750
    29  H    0.000000  -0.000000   0.000000   0.000000  -0.000000   0.000000
    30  H    0.000000  -0.000000  -0.000000  -0.000000   0.000000   0.000000
    31  H   -0.000000  -0.000000  -0.000000   0.000000  -0.000000   0.000000
    32  H    0.000000  -0.000000   0.000000   0.000000  -0.000000   0.000000
              13         14         15         16         17         18
     1  C    0.000000  -0.000000   0.001365   0.002336  -0.000068  -0.000002
     2  N   -0.000000  -0.000000  -0.106692  -0.032384   0.007062  -0.000347
     3  C   -0.000404  -0.000013   0.384283  -0.133920   0.003026  -0.000205
     4  C    0.002412   0.000045  -0.030643   0.001494  -0.000115   0.000001
     5  O    0.000020  -0.000000   0.000717  -0.000048  -0.000000  -0.000000
     6  N   -0.067727  -0.003830  -0.021781   0.000664   0.000010  -0.000000
     7  C    0.135634  -0.064298   0.000811  -0.000012  -0.000000  -0.000000
     8  C    0.000334   0.001773  -0.000010   0.000000   0.000000   0.000000
     9  C   -0.034206  -0.000190   0.000000  -0.000000  -0.000000   0.000000
    10  C   -0.100437   0.002057   0.000000   0.000000   0.000000  -0.000000
    11  C   -0.014984  -0.061196  -0.000001  -0.000000   0.000000  -0.000000
    12  F   -0.057336  -0.000298   0.000000   0.000000   0.000000   0.000000
    13  C    5.575816   0.317011  -0.000118  -0.000002   0.000000  -0.000000
    14  F    0.317011   9.083171  -0.000019  -0.000001  -0.000000   0.000000
    15  N   -0.000118  -0.000019   7.139653   0.307492  -0.048843   0.003084
    16  C   -0.000002  -0.000001   0.307492   5.096015   0.374943  -0.068700
    17  C    0.000000  -0.000000  -0.048843   0.374943   5.221590   0.454177
    18  C   -0.000000   0.000000   0.003084  -0.068700   0.454177   5.178276
    19  C   -0.000000  -0.000000  -0.000385  -0.032439  -0.074932   0.427270
    20  C    0.000000   0.000000   0.007425  -0.014977  -0.027468  -0.076152
    21  C   -0.000000   0.000000  -0.057158   0.306076  -0.060018  -0.029827
    22  H   -0.000000   0.000000   0.000029  -0.000067   0.000001  -0.000000
    23  H   -0.000000   0.000000  -0.000064   0.000120  -0.000001   0.000001
    24  H   -0.000000   0.000000   0.000029  -0.000068   0.000001  -0.000000
    25  H    0.003614   0.015289   0.055343   0.000319  -0.000150   0.000001
    26  H    0.003368   0.000000  -0.000004   0.000000   0.000000   0.000000
    27  H   -0.000351  -0.000000  -0.000000   0.000000   0.000000  -0.000000
    28  H    0.005479  -0.000001  -0.000000  -0.000000  -0.000000   0.000000
    29  H   -0.000000  -0.000000  -0.001247  -0.045001   0.384359  -0.035901
    30  H    0.000000   0.000000  -0.000012   0.004299  -0.038506   0.389839
    31  H   -0.000000  -0.000000  -0.000001  -0.000150   0.003632  -0.038287
    32  H   -0.000000  -0.000000  -0.000021   0.003008  -0.000293   0.003310
              19         20         21         22         23         24
     1  C    0.000127   0.000995  -0.032750   0.363140   0.353237   0.363114
     2  N    0.003411  -0.054998   0.212293  -0.032301  -0.024932  -0.032287
     3  C   -0.000110   0.004901  -0.131659  -0.003346   0.001544  -0.003360
     4  C    0.000001  -0.000052   0.001240   0.000926   0.000296   0.000936
     5  O    0.000000  -0.000000  -0.000010   0.002323   0.000115   0.002349
     6  N   -0.000000   0.000000  -0.000185   0.000010   0.000001   0.000010
     7  C    0.000000  -0.000000   0.000003   0.000000   0.000000   0.000000
     8  C    0.000000  -0.000000  -0.000000  -0.000000  -0.000000  -0.000000
     9  C    0.000000  -0.000000   0.000000  -0.000000  -0.000000  -0.000000
    10  C    0.000000  -0.000000  -0.000000   0.000000   0.000000   0.000000
    11  C   -0.000000   0.000000   0.000000  -0.000000  -0.000000  -0.000000
    12  F    0.000000   0.000000  -0.000000   0.000000   0.000000   0.000000
    13  C   -0.000000   0.000000  -0.000000  -0.000000  -0.000000  -0.000000
    14  F   -0.000000   0.000000   0.000000   0.000000   0.000000   0.000000
    15  N   -0.000385   0.007425  -0.057158   0.000029  -0.000064   0.000029
    16  C   -0.032439  -0.014977   0.306076  -0.000067   0.000120  -0.000068
    17  C   -0.074932  -0.027468  -0.060018   0.000001  -0.000001   0.000001
    18  C    0.427270  -0.076152  -0.029827  -0.000000   0.000001  -0.000000
    19  C    5.168761   0.446662  -0.062686  -0.000001  -0.000030  -0.000001
    20  C    0.446662   5.256638   0.308150   0.000048   0.000995   0.000048
    21  C   -0.062686   0.308150   5.195949   0.001224  -0.005663   0.001229
    22  H   -0.000001   0.000048   0.001224   0.469226  -0.022148  -0.030533
    23  H   -0.000030   0.000995  -0.005663  -0.022148   0.470474  -0.022122
    24  H   -0.000001   0.000048   0.001229  -0.030533  -0.022122   0.469172
    25  H    0.000000  -0.000003   0.000292  -0.000001   0.000000  -0.000001
    26  H   -0.000000   0.000000   0.000000   0.000000  -0.000000   0.000000
    27  H   -0.000000   0.000000   0.000000  -0.000000  -0.000000  -0.000000
    28  H    0.000000   0.000000   0.000000  -0.000000  -0.000000  -0.000000
    29  H    0.003557  -0.000434   0.004911  -0.000000   0.000000  -0.000000
    30  H   -0.039510   0.003816  -0.000227   0.000000  -0.000000   0.000000
    31  H    0.388839  -0.038592   0.004233  -0.000000   0.000001  -0.000000
    32  H   -0.032445   0.391610  -0.048842  -0.000037   0.003726  -0.000037
              25         26         27         28         29         30
     1  C   -0.000017  -0.000001  -0.000000  -0.000000   0.000000  -0.000000
     2  N    0.000528  -0.000000  -0.000000   0.000000  -0.000010  -0.000001
     3  C   -0.003955   0.000788  -0.000000   0.000000  -0.000062   0.000001
     4  C   -0.031555   0.002174  -0.000001   0.000000  -0.000004  -0.000000
     5  O    0.000972   0.034182  -0.000001   0.000000   0.000000   0.000000
     6  N    0.276200  -0.010389  -0.000017  -0.000000  -0.000001  -0.000000
     7  C   -0.044980  -0.045560   0.004166  -0.000481   0.000000   0.000000
     8  C    0.001703   0.358497  -0.039440   0.004017  -0.000000  -0.000000
     9  C   -0.000058  -0.029171   0.392407  -0.034423   0.000000  -0.000000
    10  C   -0.000049   0.003670  -0.038029   0.385861   0.000000  -0.000000
    11  C    0.001103  -0.000424   0.003698  -0.047347  -0.000000   0.000000
    12  F   -0.000000  -0.000000  -0.000001  -0.001750   0.000000   0.000000
    13  C    0.003614   0.003368  -0.000351   0.005479  -0.000000   0.000000
    14  F    0.015289   0.000000  -0.000000  -0.000001  -0.000000   0.000000
    15  N    0.055343  -0.000004  -0.000000  -0.000000  -0.001247  -0.000012
    16  C    0.000319   0.000000   0.000000  -0.000000  -0.045001   0.004299
    17  C   -0.000150   0.000000   0.000000  -0.000000   0.384359  -0.038506
    18  C    0.000001   0.000000  -0.000000   0.000000  -0.035901   0.389839
    19  C    0.000000  -0.000000  -0.000000   0.000000   0.003557  -0.039510
    20  C   -0.000003   0.000000   0.000000   0.000000  -0.000434   0.003816
    21  C    0.000292   0.000000   0.000000   0.000000   0.004911  -0.000227
    22  H   -0.000001   0.000000  -0.000000  -0.000000  -0.000000   0.000000
    23  H    0.000000  -0.000000  -0.000000  -0.000000   0.000000  -0.000000
    24  H   -0.000001   0.000000  -0.000000  -0.000000  -0.000000   0.000000
    25  H    0.363263  -0.000063   0.000001   0.000000   0.000037  -0.000000
    26  H   -0.000063   0.456999  -0.003562  -0.000024  -0.000000  -0.000000
    27  H    0.000001  -0.003562   0.468295  -0.003795  -0.000000  -0.000000
    28  H    0.000000  -0.000024  -0.003795   0.467269   0.000000   0.000000
    29  H    0.000037  -0.000000  -0.000000   0.000000   0.476095  -0.003684
    30  H   -0.000000  -0.000000  -0.000000   0.000000  -0.003684   0.472003
    31  H    0.000000  -0.000000   0.000000   0.000000  -0.000034  -0.003423
    32  H    0.000000   0.000000  -0.000000   0.000000   0.000002  -0.000035
              31         32
     1  C    0.000000   0.001116
     2  N   -0.000015  -0.004752
     3  C    0.000000  -0.000006
     4  C   -0.000000   0.000000
     5  O    0.000000  -0.000000
     6  N    0.000000   0.000000
     7  C   -0.000000   0.000000
     8  C   -0.000000  -0.000000
     9  C   -0.000000   0.000000
    10  C    0.000000   0.000000
    11  C   -0.000000  -0.000000
    12  F    0.000000   0.000000
    13  C   -0.000000  -0.000000
    14  F   -0.000000  -0.000000
    15  N   -0.000001  -0.000021
    16  C   -0.000150   0.003008
    17  C    0.003632  -0.000293
    18  C   -0.038287   0.003310
    19  C    0.388839  -0.032445
    20  C   -0.038592   0.391610
    21  C    0.004233  -0.048842
    22  H   -0.000000  -0.000037
    23  H    0.000001   0.003726
    24  H   -0.000000  -0.000037
    25  H    0.000000   0.000000
    26  H   -0.000000   0.000000
    27  H    0.000000  -0.000000
    28  H    0.000000   0.000000
    29  H   -0.000034   0.000002
    30  H   -0.003423  -0.000035
    31  H    0.467640  -0.003368
    32  H   -0.003368   0.462814
 Mulliken charges:
               1
     1  C   -0.395719
     2  N   -0.806298
     3  C    0.556631
     4  C    0.568309
     5  O   -0.518647
     6  N   -0.851639
     7  C    0.360810
     8  C   -0.214338
     9  C   -0.211292
    10  C   -0.240352
    11  C    0.264966
    12  F   -0.293973
    13  C    0.231875
    14  F   -0.289500
    15  N   -0.633230
    16  C    0.231002
    17  C   -0.198406
    18  C   -0.206537
    19  C   -0.196090
    20  C   -0.208614
    21  C    0.393425
    22  H    0.251507
    23  H    0.244449
    24  H    0.251517
    25  H    0.362166
    26  H    0.229522
    27  H    0.216631
    28  H    0.225196
    29  H    0.217415
    30  H    0.215439
    31  H    0.219524
    32  H    0.224250
 Sum of Mulliken charges =  -0.00000
 Mulliken charges with hydrogens summed into heavy atoms:
               1
     1  C    0.351755
     2  N   -0.806298
     3  C    0.556631
     4  C    0.568309
     5  O   -0.518647
     6  N   -0.489473
     7  C    0.360810
     8  C    0.015184
     9  C    0.005339
    10  C   -0.015156
    11  C    0.264966
    12  F   -0.293973
    13  C    0.231875
    14  F   -0.289500
    15  N   -0.633230
    16  C    0.231002
    17  C    0.019009
    18  C    0.008902
    19  C    0.023434
    20  C    0.015637
    21  C    0.393425
 Electronic spatial extent (au):  <R**2>=           8096.9222
 Charge=              0.0000 electrons
 Dipole moment (field-independent basis, Debye):
    X=             -6.7940    Y=              2.9862    Z=             -0.0006  Tot=              7.4213
 Quadrupole moment (field-independent basis, Debye-Ang):
   XX=            -93.8822   YY=           -112.3265   ZZ=           -123.3460
   XY=              1.0999   XZ=              0.0027   YZ=             -0.0031
 Traceless Quadrupole moment (field-independent basis, Debye-Ang):
   XX=             15.9694   YY=             -2.4750   ZZ=            -13.4944
   XY=              1.0999   XZ=              0.0027   YZ=             -0.0031
 Octapole moment (field-independent basis, Debye-Ang**2):
  XXX=            -89.0612  YYY=            -11.3029  ZZZ=             -0.0122  XYY=            -44.9099
  XXY=             54.6928  XXZ=              0.0164  XZZ=             22.9451  YZZ=             -3.3181
  YYZ=             -0.0047  XYZ=              0.0114
 Hexadecapole moment (field-independent basis, Debye-Ang**3):
 XXXX=          -7590.5480 YYYY=          -1612.7251 ZZZZ=           -121.7850 XXXY=            135.2523
 XXXZ=             -0.0289 YYYX=            -78.2334 YYYZ=             -0.0074 ZZZX=             -0.0038
 ZZZY=             -0.0022 XXYY=          -1567.3430 XXZZ=          -1610.1697 YYZZ=           -310.0844
 XXYZ=             -0.0080 YYXZ=              0.0274 ZZXY=            -80.6777
 N-N= 1.548423942238D+03 E-N=-5.459064673034D+03  KE= 1.003250969677D+03
 No NMR shielding tensors so no spin-rotation constants.
 Leave Link  601 at Tue Jan 30 19:02:51 2024, MaxMem=  1073741824 cpu:               0.9 elap:               0.2
 (Enter /share/software/user/restricted/gaussian/g16.B01/l9999.exe)
 Electronic transition elements 
                 1             2             3             4             5 
      1  -0.101171D+04 -0.101168D+04 -0.101167D+04 -0.101167D+04 -0.101167D+04
      2  -0.293084D+01  0.119127D+00 -0.366878D+00  0.882256D-02  0.203383D+01
      3  -0.262715D+00  0.861791D+00  0.266598D+00  0.517118D-01 -0.629520D+00
      4  -0.511554D+00  0.576808D+00  0.131720D+00 -0.782606D-01 -0.175282D+00
      5   0.247372D+00 -0.125012D-01  0.404693D-01 -0.276668D-02 -0.252595D+00
      6   0.163676D-01 -0.105890D+00 -0.344142D-01 -0.157915D-01  0.710185D-01
      7   0.393836D-01 -0.706195D-01 -0.178136D-01  0.240765D-01  0.170902D-01
      8  -0.448199D-01 -0.959311D-01  0.249029D-01 -0.226148D+00  0.446566D-01
      9  -0.252435D+00 -0.540796D+00  0.139532D+00  0.415551D+00  0.251967D+00
     10   0.386489D+00  0.827557D+00 -0.213946D+00  0.245394D+00 -0.385683D+00
     11   0.125755D+00 -0.638756D-01 -0.998035D-01  0.128487D-01  0.219284D+01
     12  -0.613096D-01  0.134325D+00 -0.255641D-01  0.149703D-02 -0.718537D-01
     13   0.777352D-03  0.141283D+00 -0.362932D-01 -0.147344D-01 -0.109111D-01
     14   0.177985D+00  0.529768D+00 -0.170249D+00  0.373980D-01 -0.121527D+00
     15   0.131123D+00  0.337712D+00 -0.123183D+00 -0.561573D-01  0.173292D+00
     16  -0.173559D-01  0.143741D+00 -0.384971D-01  0.362579D-02 -0.711762D-01
 1\1\GINC-SH02-14N05\FTS\RB3LYP TD-FC\3-21G*\C15H11F2N3O1\JENNXU23\30-J
 an-2024\0\\#p b3lyp/3-21G* opt=(calcfc,ts,noeigen,maxcycle=1000) scrf=
 (solvent=water) td=(singlets,nstates=5)\\2_top\\0,1\C,-1.6353836363,-2
 .3543365488,-1.8875139624\N,-1.7420716906,-1.1212789315,-1.0950833434\
 C,-0.6585810792,-0.4326121755,-0.5193141978\C,0.6916774022,-0.78836283
 91,-0.5952875176\O,1.2702329557,-1.7491068639,-1.1560002724\N,1.456875
 5387,0.260893207,0.1790107302\C,2.7683483551,0.3361239308,0.3801976555
 \C,3.734373794,-0.6028433868,-0.121489314\C,5.0709165655,-0.4190451575
 ,0.1534727667\C,5.5167376575,0.6757389198,0.9205663092\C,4.5932994152,
 1.5978197007,1.4161494493\F,5.0138855926,2.6614086453,2.1599344716\C,3
 .2541395391,1.4410973101,1.1585766116\F,2.3272256971,2.3263319867,1.62
 96881819\N,-1.089851989,0.6946398724,0.1671532549\C,-2.453401386,0.710
 4861639,0.019173588\C,-3.4111169665,1.6233226358,0.5043635082\C,-4.753
 6285417,1.4032336441,0.2046631189\C,-5.1621314892,0.2955039141,-0.5665
 244539\C,-4.2338053553,-0.6302959373,-1.0635991566\C,-2.8897038237,-0.
 418403206,-0.7690599546\H,-1.1842451075,-3.1500947471,-1.2896250456\H,
 -2.6343952696,-2.6570689781,-2.2019229108\H,-1.0113349955,-2.184713438
 8,-2.7684156868\H,0.808743876,0.9685386322,0.5662715201\H,3.3624802114
 ,-1.4289805621,-0.704477083\H,5.7980463352,-1.1255851213,-0.2240085744
 \H,6.5655950242,0.8203491209,1.1365959531\H,-3.0950940632,2.4730381683
 ,1.0962353949\H,-5.5029601112,2.0959460416,0.5702375544\H,-6.215112735
 8,0.1551522602,-0.7805100431\H,-4.5597597192,-1.4768962602,-1.65461490
 25\\Version=ES64L-G16RevB.01\State=1-A\HF=-1011.8193278\RMSD=8.291e-09
 \RMSF=6.288e-06\Dipole=2.0033463,-0.7032854,-0.2269397\PG=C01 [X(C15H1
 1F2N3O1)]\\@



 IN THIS SHORT LIFE

 THAT ONLY LASTS AN HOUR

 HOW MUCH, HOW LITTLE, IS WITHIN OUR POWER....


 EMILY DICKINSON BOLTS OF MELODY NO. 521
 Job cpu time:       0 days  5 hours 10 minutes 33.3 seconds.
 Elapsed time:       0 days  0 hours 41 minutes 12.2 seconds.
 File lengths (MBytes):  RWF=    842 Int=      0 D2E=      0 Chk=     23 Scr=      1
 Normal termination of Gaussian 16 at Tue Jan 30 19:02:52 2024.
