 Entering Gaussian System, Link 0=g16
 Initial command:
 /share/software/user/restricted/gaussian/g16.B01/l1.exe "/scratch/users/jennxu23/SyntheMol_private/scripts/gaussian/Gau-6701.inp" -scrdir="/scratch/users/jennxu23/SyntheMol_private/scripts/gaussian/"
 Entering Link 1 = /share/software/user/restricted/gaussian/g16.B01/l1.exe PID=      6702.
  
 Copyright (c) 1988-2017, Gaussian, Inc.  All Rights Reserved.
  
 This is part of the Gaussian(R) 16 program.  It is based on
 the Gaussian(R) 09 system (copyright 2009, Gaussian, Inc.),
 the Gaussian(R) 03 system (copyright 2003, Gaussian, Inc.),
 the Gaussian(R) 98 system (copyright 1998, Gaussian, Inc.),
 the Gaussian(R) 94 system (copyright 1995, Gaussian, Inc.),
 the Gaussian 92(TM) system (copyright 1992, Gaussian, Inc.),
 the Gaussian 90(TM) system (copyright 1990, Gaussian, Inc.),
 the Gaussian 88(TM) system (copyright 1988, Gaussian, Inc.),
 the Gaussian 86(TM) system (copyright 1986, Carnegie Mellon
 University), and the Gaussian 82(TM) system (copyright 1983,
 Carnegie Mellon University). Gaussian is a federally registered
 trademark of Gaussian, Inc.
  
 This software contains proprietary and confidential information,
 including trade secrets, belonging to Gaussian, Inc.
  
 This software is provided under written license and may be
 used, copied, transmitted, or stored only in accord with that
 written license.
  
 The following legend is applicable only to US Government
 contracts under FAR:
  
                    RESTRICTED RIGHTS LEGEND
  
 Use, reproduction and disclosure by the US Government is
 subject to restrictions as set forth in subparagraphs (a)
 and (c) of the Commercial Computer Software - Restricted
 Rights clause in FAR 52.227-19.
  
 Gaussian, Inc.
 340 Quinnipiac St., Bldg. 40, Wallingford CT 06492
  
  
 ---------------------------------------------------------------
 Warning -- This program may not be used in any manner that
 competes with the business of Gaussian, Inc. or will provide
 assistance to any competitor of Gaussian, Inc.  The licensee
 of this program is prohibited from giving any competitor of
 Gaussian, Inc. access to this program.  By using this program,
 the user acknowledges that Gaussian, Inc. is engaged in the
 business of creating and licensing software in the field of
 computational chemistry and represents and warrants to the
 licensee that it is not a competitor of Gaussian, Inc. and that
 it will not use this program in any manner prohibited above.
 ---------------------------------------------------------------
  

 Cite this work as:
 Gaussian 16, Revision B.01,
 M. J. Frisch, G. W. Trucks, H. B. Schlegel, G. E. Scuseria, 
 M. A. Robb, J. R. Cheeseman, G. Scalmani, V. Barone, 
 G. A. Petersson, H. Nakatsuji, X. Li, M. Caricato, A. V. Marenich, 
 J. Bloino, B. G. Janesko, R. Gomperts, B. Mennucci, H. P. Hratchian, 
 J. V. Ortiz, A. F. Izmaylov, J. L. Sonnenberg, D. Williams-Young, 
 F. Ding, F. Lipparini, F. Egidi, J. Goings, B. Peng, A. Petrone, 
 T. Henderson, D. Ranasinghe, V. G. Zakrzewski, J. Gao, N. Rega, 
 G. Zheng, W. Liang, M. Hada, M. Ehara, K. Toyota, R. Fukuda, 
 J. Hasegawa, M. Ishida, T. Nakajima, Y. Honda, O. Kitao, H. Nakai, 
 T. Vreven, K. Throssell, J. A. Montgomery, Jr., J. E. Peralta, 
 F. Ogliaro, M. J. Bearpark, J. J. Heyd, E. N. Brothers, K. N. Kudin, 
 V. N. Staroverov, T. A. Keith, R. Kobayashi, J. Normand, 
 K. Raghavachari, A. P. Rendell, J. C. Burant, S. S. Iyengar, 
 J. Tomasi, M. Cossi, J. M. Millam, M. Klene, C. Adamo, R. Cammi, 
 J. W. Ochterski, R. L. Martin, K. Morokuma, O. Farkas, 
 J. B. Foresman, and D. J. Fox, Gaussian, Inc., Wallingford CT, 2016.
 
 ******************************************
 Gaussian 16:  ES64L-G16RevB.01 20-Dec-2017
                30-Jan-2024 
 ******************************************
 %Mem=8GB
 %CPU=8,10,12-15,17,19
 SetSPE:  set environment variable "MP_BIND" = "yes"
 SetSPE:  set environment variable "MP_BLIST" = "8,10,12,13,14,15,17,19"
 Will use up to    8 processors via shared memory.
 %GPUCPU=0=8
 Will use    1 GPUs:
 Thread  CPU   GPU
      0    8     0
      1   10    -1
      2   12    -1
      3   13    -1
      4   14    -1
      5   15    -1
      6   17    -1
      7   19    -1
 SetGPE:  set environment variable "MP_BIND" = "yes"
 SetGPE:  set environment variable "MP_BLIST" = "8,10,12,13,14,15,17,19"
 Properties for Device   0
 Minimum vector length:                              32
 Maximum vector length:                            1024
 Number of SMPs:                                     56
 Maximum number of threads per SMP:                2048
 Number of ASync Engines:                             2
 Memory:                                           1385447424
   1246902681 words of memory will be used on each GPU.
 ----------------------------------------------------------------------
 #p b3lyp/3-21G* opt=(calcfc,ts,noeigen,maxcycle=1000) scrf=(solvent=wa
 ter) td=(singlets,nstates=5)
 ----------------------------------------------------------------------
 1/5=1,6=1000,10=4,11=1,18=20,26=3,38=1/1,3;
 2/9=110,12=2,17=6,18=5,40=1/2;
 3/5=5,7=1,11=9,25=1,30=1,70=2201,71=2,72=1,74=-5,140=1/1,2,3,8;
 4//1;
 5/5=2,38=5,53=1/2;
 8/6=1,10=1,108=5/1;
 9/15=3,41=5,42=1,48=1,70=2/14;
 10/5=2004,20=4/2;
 11/6=1,8=1,12=-1,16=1,42=3/1,2,10;
 10/6=3,21=1/2,14;
 6/7=2,8=2,9=2,10=2/1;
 7/10=1,12=6,13=8,18=20,25=1,44=2/1,2,3,16;
 1/5=1,6=1000,10=4,11=1,18=20,26=3/3(2);
 2/9=110/2;
 99//99;
 2/9=110/2;
 3/5=5,7=1,11=9,25=1,30=1,70=2205,71=1,72=1,74=-5/1,2,3,8;
 4/5=5,16=3,69=1/1;
 5/5=2,38=5,53=1/2;
 8/6=1,10=1,108=5/1;
 9/15=2,41=5,42=1,48=1,49=4,70=2/14;
 10/5=4/2;
 7/12=6,13=5/1,2,3,16;
 1/5=1,6=1000,11=1,18=20,26=3/3(-8);
 2/9=110/2;
 6/7=2,8=2,9=2,10=2/1;
 99/9=10/99;
 Leave Link    1 at Tue Jan 30 19:02:55 2024, MaxMem=  1073741824 cpu:               6.1 elap:               0.9
 (Enter /share/software/user/restricted/gaussian/g16.B01/l101.exe)
 -----
 3_top
 -----
 Symbolic Z-matrix:
 Charge =  0 Multiplicity = 1
 N                     3.61184   0.19961  -0.42238 
 C                     2.3201    0.05123   0.00393 
 C                     1.21459   0.29621  -0.71027 
 C                    -0.14581   0.08705  -0.18502 
 C                    -1.02832  -0.76252  -0.87426 
 O                    -0.61054  -1.36961  -2.03071 
 C                    -2.32263  -1.00292  -0.40477 
 C                    -2.75979  -0.38464   0.76563 
 C                    -1.91039   0.47919   1.45381 
 C                    -0.622     0.71979   0.97557 
 O                     0.12012   1.61998   1.69435 
 H                     3.72301   0.76362  -1.2612 
 H                     4.2786    0.42663   0.31122 
 H                     2.25436  -0.32076   1.02678 
 H                     1.27528   0.60649  -1.7493 
 H                    -1.29893  -1.98403  -2.33149 
 H                    -3.00014  -1.66368  -0.93683 
 H                    -3.76449  -0.56676   1.13807 
 H                    -2.25234   0.97591   2.35796 
 H                     0.91748   1.82925   1.17891 
 
 ITRead=  0  0  0  0  0  0  0  0  0  0  0  0  0  0  0  0  0  0  0  0
 MicOpt= -1 -1 -1 -1 -1 -1 -1 -1 -1 -1 -1 -1 -1 -1 -1 -1 -1 -1 -1 -1
 NAtoms=     20 NQM=       20 NQMF=       0 NMMI=      0 NMMIF=      0
                NMic=       0 NMicF=      0.
                    Isotopes and Nuclear Properties:
 (Nuclear quadrupole moments (NQMom) in fm**2, nuclear magnetic moments (NMagM)
  in nuclear magnetons)

  Atom         1           2           3           4           5           6           7           8           9          10
 IAtWgt=          14          12          12          12          12          16          12          12          12          12
 AtmWgt=  14.0030740  12.0000000  12.0000000  12.0000000  12.0000000  15.9949146  12.0000000  12.0000000  12.0000000  12.0000000
 NucSpn=           2           0           0           0           0           0           0           0           0           0
 AtZEff=  -0.0000000  -0.0000000  -0.0000000  -0.0000000  -0.0000000  -0.0000000  -0.0000000  -0.0000000  -0.0000000  -0.0000000
 NQMom=    2.0440000   0.0000000   0.0000000   0.0000000   0.0000000   0.0000000   0.0000000   0.0000000   0.0000000   0.0000000
 NMagM=    0.4037610   0.0000000   0.0000000   0.0000000   0.0000000   0.0000000   0.0000000   0.0000000   0.0000000   0.0000000
 AtZNuc=   7.0000000   6.0000000   6.0000000   6.0000000   6.0000000   8.0000000   6.0000000   6.0000000   6.0000000   6.0000000

  Atom        11          12          13          14          15          16          17          18          19          20
 IAtWgt=          16           1           1           1           1           1           1           1           1           1
 AtmWgt=  15.9949146   1.0078250   1.0078250   1.0078250   1.0078250   1.0078250   1.0078250   1.0078250   1.0078250   1.0078250
 NucSpn=           0           1           1           1           1           1           1           1           1           1
 AtZEff=  -0.0000000  -0.0000000  -0.0000000  -0.0000000  -0.0000000  -0.0000000  -0.0000000  -0.0000000  -0.0000000  -0.0000000
 NQMom=    0.0000000   0.0000000   0.0000000   0.0000000   0.0000000   0.0000000   0.0000000   0.0000000   0.0000000   0.0000000
 NMagM=    0.0000000   2.7928460   2.7928460   2.7928460   2.7928460   2.7928460   2.7928460   2.7928460   2.7928460   2.7928460
 AtZNuc=   8.0000000   1.0000000   1.0000000   1.0000000   1.0000000   1.0000000   1.0000000   1.0000000   1.0000000   1.0000000
 Leave Link  101 at Tue Jan 30 19:02:55 2024, MaxMem=  1073741824 cpu:               3.3 elap:               0.5
 (Enter /share/software/user/restricted/gaussian/g16.B01/l103.exe)

 GradGradGradGradGradGradGradGradGradGradGradGradGradGradGradGradGradGrad
 Berny optimization.
 Initialization pass.
                           ----------------------------
                           !    Initial Parameters    !
                           ! (Angstroms and Degrees)  !
 --------------------------                            --------------------------
 ! Name  Definition              Value          Derivative Info.                !
 --------------------------------------------------------------------------------
 ! R1    R(1,2)                  1.3683         calculate D2E/DX2 analytically  !
 ! R2    R(1,12)                 1.0169         calculate D2E/DX2 analytically  !
 ! R3    R(1,13)                 1.017          calculate D2E/DX2 analytically  !
 ! R4    R(2,3)                  1.3387         calculate D2E/DX2 analytically  !
 ! R5    R(2,14)                 1.0904         calculate D2E/DX2 analytically  !
 ! R6    R(3,4)                  1.4732         calculate D2E/DX2 analytically  !
 ! R7    R(3,15)                 1.0861         calculate D2E/DX2 analytically  !
 ! R8    R(4,5)                  1.4056         calculate D2E/DX2 analytically  !
 ! R9    R(4,10)                 1.405          calculate D2E/DX2 analytically  !
 ! R10   R(5,6)                  1.3713         calculate D2E/DX2 analytically  !
 ! R11   R(5,7)                  1.3977         calculate D2E/DX2 analytically  !
 ! R12   R(6,16)                 0.9705         calculate D2E/DX2 analytically  !
 ! R13   R(7,8)                  1.394          calculate D2E/DX2 analytically  !
 ! R14   R(7,17)                 1.0857         calculate D2E/DX2 analytically  !
 ! R15   R(8,9)                  1.3933         calculate D2E/DX2 analytically  !
 ! R16   R(8,18)                 1.0869         calculate D2E/DX2 analytically  !
 ! R17   R(9,10)                 1.3952         calculate D2E/DX2 analytically  !
 ! R18   R(9,19)                 1.0868         calculate D2E/DX2 analytically  !
 ! R19   R(10,11)                1.3703         calculate D2E/DX2 analytically  !
 ! R20   R(11,20)                0.9722         calculate D2E/DX2 analytically  !
 ! A1    A(2,1,12)             114.8553         calculate D2E/DX2 analytically  !
 ! A2    A(2,1,13)             114.7334         calculate D2E/DX2 analytically  !
 ! A3    A(12,1,13)            113.5494         calculate D2E/DX2 analytically  !
 ! A4    A(1,2,3)              126.4063         calculate D2E/DX2 analytically  !
 ! A5    A(1,2,14)             112.7157         calculate D2E/DX2 analytically  !
 ! A6    A(3,2,14)             120.8698         calculate D2E/DX2 analytically  !
 ! A7    A(2,3,4)              123.1179         calculate D2E/DX2 analytically  !
 ! A8    A(2,3,15)             121.0987         calculate D2E/DX2 analytically  !
 ! A9    A(4,3,15)             115.6744         calculate D2E/DX2 analytically  !
 ! A10   A(3,4,5)              119.3911         calculate D2E/DX2 analytically  !
 ! A11   A(3,4,10)             122.9252         calculate D2E/DX2 analytically  !
 ! A12   A(5,4,10)             117.6751         calculate D2E/DX2 analytically  !
 ! A13   A(4,5,6)              119.33           calculate D2E/DX2 analytically  !
 ! A14   A(4,5,7)              121.378          calculate D2E/DX2 analytically  !
 ! A15   A(6,5,7)              119.292          calculate D2E/DX2 analytically  !
 ! A16   A(5,6,16)             108.9986         calculate D2E/DX2 analytically  !
 ! A17   A(5,7,8)              119.7458         calculate D2E/DX2 analytically  !
 ! A18   A(5,7,17)             121.1954         calculate D2E/DX2 analytically  !
 ! A19   A(8,7,17)             119.0587         calculate D2E/DX2 analytically  !
 ! A20   A(7,8,9)              119.9009         calculate D2E/DX2 analytically  !
 ! A21   A(7,8,18)             120.2169         calculate D2E/DX2 analytically  !
 ! A22   A(9,8,18)             119.8796         calculate D2E/DX2 analytically  !
 ! A23   A(8,9,10)             120.0383         calculate D2E/DX2 analytically  !
 ! A24   A(8,9,19)             120.1628         calculate D2E/DX2 analytically  !
 ! A25   A(10,9,19)            119.7955         calculate D2E/DX2 analytically  !
 ! A26   A(4,10,9)             121.2293         calculate D2E/DX2 analytically  !
 ! A27   A(4,10,11)            123.0643         calculate D2E/DX2 analytically  !
 ! A28   A(9,10,11)            115.6961         calculate D2E/DX2 analytically  !
 ! A29   A(10,11,20)           107.9068         calculate D2E/DX2 analytically  !
 ! D1    D(12,1,2,3)            16.3493         calculate D2E/DX2 analytically  !
 ! D2    D(12,1,2,14)         -164.6918         calculate D2E/DX2 analytically  !
 ! D3    D(13,1,2,3)           150.6313         calculate D2E/DX2 analytically  !
 ! D4    D(13,1,2,14)          -30.4097         calculate D2E/DX2 analytically  !
 ! D5    D(1,2,3,4)            178.8323         calculate D2E/DX2 analytically  !
 ! D6    D(1,2,3,15)             2.7943         calculate D2E/DX2 analytically  !
 ! D7    D(14,2,3,4)            -0.0489         calculate D2E/DX2 analytically  !
 ! D8    D(14,2,3,15)         -176.0869         calculate D2E/DX2 analytically  !
 ! D9    D(2,3,4,5)           -123.3644         calculate D2E/DX2 analytically  !
 ! D10   D(2,3,4,10)            57.7287         calculate D2E/DX2 analytically  !
 ! D11   D(15,3,4,5)            52.8717         calculate D2E/DX2 analytically  !
 ! D12   D(15,3,4,10)         -126.0352         calculate D2E/DX2 analytically  !
 ! D13   D(3,4,5,6)             -0.6858         calculate D2E/DX2 analytically  !
 ! D14   D(3,4,5,7)            179.2378         calculate D2E/DX2 analytically  !
 ! D15   D(10,4,5,6)           178.2782         calculate D2E/DX2 analytically  !
 ! D16   D(10,4,5,7)            -1.7983         calculate D2E/DX2 analytically  !
 ! D17   D(3,4,10,9)          -178.9482         calculate D2E/DX2 analytically  !
 ! D18   D(3,4,10,11)            2.2703         calculate D2E/DX2 analytically  !
 ! D19   D(5,4,10,9)             2.1272         calculate D2E/DX2 analytically  !
 ! D20   D(5,4,10,11)         -176.6542         calculate D2E/DX2 analytically  !
 ! D21   D(4,5,6,16)           174.5            calculate D2E/DX2 analytically  !
 ! D22   D(7,5,6,16)            -5.4252         calculate D2E/DX2 analytically  !
 ! D23   D(4,5,7,8)              0.4475         calculate D2E/DX2 analytically  !
 ! D24   D(4,5,7,17)          -179.6854         calculate D2E/DX2 analytically  !
 ! D25   D(6,5,7,8)           -179.6289         calculate D2E/DX2 analytically  !
 ! D26   D(6,5,7,17)             0.2382         calculate D2E/DX2 analytically  !
 ! D27   D(5,7,8,9)              0.6366         calculate D2E/DX2 analytically  !
 ! D28   D(5,7,8,18)          -179.9508         calculate D2E/DX2 analytically  !
 ! D29   D(17,7,8,9)          -179.2333         calculate D2E/DX2 analytically  !
 ! D30   D(17,7,8,18)            0.1793         calculate D2E/DX2 analytically  !
 ! D31   D(7,8,9,10)            -0.3118         calculate D2E/DX2 analytically  !
 ! D32   D(7,8,9,19)           179.0149         calculate D2E/DX2 analytically  !
 ! D33   D(18,8,9,10)         -179.7264         calculate D2E/DX2 analytically  !
 ! D34   D(18,8,9,19)           -0.3997         calculate D2E/DX2 analytically  !
 ! D35   D(8,9,10,4)            -1.109          calculate D2E/DX2 analytically  !
 ! D36   D(8,9,10,11)          177.7578         calculate D2E/DX2 analytically  !
 ! D37   D(19,9,10,4)          179.5619         calculate D2E/DX2 analytically  !
 ! D38   D(19,9,10,11)          -1.5714         calculate D2E/DX2 analytically  !
 ! D39   D(4,10,11,20)           9.425          calculate D2E/DX2 analytically  !
 ! D40   D(9,10,11,20)        -169.4187         calculate D2E/DX2 analytically  !
 --------------------------------------------------------------------------------
 Trust Radius=3.00D-01 FncErr=1.00D-07 GrdErr=1.00D-06 EigMax=2.50D+02 EigMin=1.00D-04
 Number of steps in this run=    120 maximum allowed number of steps=    120.
 Search for a saddle point of order  1.
 GradGradGradGradGradGradGradGradGradGradGradGradGradGradGradGradGradGrad

 Leave Link  103 at Tue Jan 30 19:02:56 2024, MaxMem=  1073741824 cpu:               0.1 elap:               0.1
 (Enter /share/software/user/restricted/gaussian/g16.B01/l202.exe)
                          Input orientation:                          
 ---------------------------------------------------------------------
 Center     Atomic      Atomic             Coordinates (Angstroms)
 Number     Number       Type             X           Y           Z
 ---------------------------------------------------------------------
      1          7           0        3.611840    0.199607   -0.422375
      2          6           0        2.320097    0.051232    0.003925
      3          6           0        1.214593    0.296207   -0.710270
      4          6           0       -0.145809    0.087049   -0.185018
      5          6           0       -1.028317   -0.762522   -0.874259
      6          8           0       -0.610541   -1.369615   -2.030712
      7          6           0       -2.322632   -1.002922   -0.404770
      8          6           0       -2.759789   -0.384639    0.765634
      9          6           0       -1.910388    0.479185    1.453811
     10          6           0       -0.621999    0.719785    0.975566
     11          8           0        0.120117    1.619978    1.694349
     12          1           0        3.723005    0.763621   -1.261202
     13          1           0        4.278599    0.426627    0.311219
     14          1           0        2.254361   -0.320763    1.026781
     15          1           0        1.275281    0.606487   -1.749299
     16          1           0       -1.298932   -1.984034   -2.331489
     17          1           0       -3.000142   -1.663679   -0.936833
     18          1           0       -3.764489   -0.566757    1.138070
     19          1           0       -2.252338    0.975905    2.357963
     20          1           0        0.917485    1.829249    1.178909
 ---------------------------------------------------------------------
                    Distance matrix (angstroms):
                    1          2          3          4          5
     1  N    0.000000
     2  C    1.368337   0.000000
     3  C    2.416404   1.338740   0.000000
     4  C    3.766820   2.473394   1.473204   0.000000
     5  C    4.760352   3.556020   2.485648   1.405576   0.000000
     6  O    4.783065   3.840208   2.801722   2.396755   1.371307
     7  C    6.055109   4.778411   3.780613   2.444358   1.397663
     8  C    6.507716   5.155136   4.293898   2.821191   2.414547
     9  C    5.838942   4.492474   3.805553   2.439932   2.782048
    10  C    4.488899   3.169697   2.528741   1.405015   2.405032
    11  O    4.323205   3.187226   2.955070   2.439797   3.686862
    12  H    1.016907   2.018959   2.610389   4.072302   5.005387
    13  H    1.016989   2.017692   3.232426   4.465081   5.566219
    14  H    2.052703   1.090383   2.116392   2.719482   3.819041
    15  H    2.717681   2.115123   1.086065   2.176301   2.818944
    16  H    5.703393   4.763805   3.761071   3.197876   1.920636
    17  H    6.888746   5.668412   4.653652   3.431835   2.168892
    18  H    7.578425   6.220159   5.380737   3.908052   3.402121
    19  H    6.536169   5.225293   4.679280   3.419691   3.868800
    20  H    3.532619   2.551324   2.451018   2.454822   3.836524
                    6          7          8          9         10
     6  O    0.000000
     7  C    2.389437   0.000000
     8  C    3.661830   1.393996   0.000000
     9  C    4.153260   2.412657   1.393291   0.000000
    10  C    3.661070   2.786612   2.415361   1.395189   0.000000
    11  O    4.831936   4.153665   3.629719   2.341414   1.370304
    12  H    4.891059   6.356405   6.888627   6.259978   4.887138
    13  H    5.710938   6.792092   7.099546   6.293794   4.954105
    14  H    4.319261   4.843918   5.021352   4.262324   3.059217
    15  H    2.745996   4.164485   4.856851   4.519358   3.322258
    16  H    0.970494   2.392235   3.779462   4.557392   4.324984
    17  H    2.644473   1.085684   2.142921   3.390370   3.872175
    18  H    4.542373   2.156281   1.086875   2.152063   3.399535
    19  H    5.239985   3.399029   2.155017   1.086809   2.152818
    20  H    4.782182   4.585585   4.312127   3.145649   1.908473
                   11         12         13         14         15
    11  O    0.000000
    12  H    4.738083   0.000000
    13  H    4.542037   1.701399   0.000000
    14  H    2.960932   2.927059   2.273359   0.000000
    15  H    3.770978   2.500857   3.646643   3.086261   0.000000
    16  H    5.586589   5.823656   6.626013   5.164333   3.698150
    17  H    5.238468   7.155258   7.675095   5.767929   4.908462
    18  H    4.492374   7.974270   8.146272   6.024902   5.925595
    19  H    2.546323   6.989146   6.866150   4.874806   5.426801
    20  H    0.972248   3.867900   3.743972   2.536322   3.193363
                   16         17         18         19         20
    16  H    0.000000
    17  H    2.223018   0.000000
    18  H    4.486143   2.468337   0.000000
    19  H    5.626827   4.287459   2.480836   0.000000
    20  H    5.637067   5.659038   5.259600   3.488000   0.000000
 Stoichiometry    C8H9NO2
 Framework group  C1[X(C8H9NO2)]
 Deg. of freedom    54
 Full point group                 C1      NOp   1
 Largest Abelian subgroup         C1      NOp   1
 Largest concise Abelian subgroup C1      NOp   1
                         Standard orientation:                         
 ---------------------------------------------------------------------
 Center     Atomic      Atomic             Coordinates (Angstroms)
 Number     Number       Type             X           Y           Z
 ---------------------------------------------------------------------
      1          7           0       -3.722078    0.257034    0.282515
      2          6           0       -2.386476   -0.013201    0.406955
      3          6           0       -1.409388    0.421980   -0.398118
      4          6           0        0.013012    0.105611   -0.181277
      5          6           0        0.941025    1.153495   -0.053310
      6          8           0        0.506495    2.450761   -0.146950
      7          6           0        2.297611    0.901091    0.169019
      8          6           0        2.750888   -0.414142    0.258057
      9          6           0        1.853130   -1.469583    0.111981
     10          6           0        0.501455   -1.210180   -0.116570
     11          8           0       -0.293317   -2.312249   -0.294095
     12          1           0       -4.002457    0.617154   -0.626221
     13          1           0       -4.338187   -0.469044    0.639566
     14          1           0       -2.161571   -0.634153    1.274579
     15          1           0       -1.621511    1.091729   -1.226355
     16          1           0        1.246913    3.046867    0.048749
     17          1           0        3.011066    1.712877    0.272442
     18          1           0        3.804045   -0.619192    0.431582
     19          1           0        2.204539   -2.496660    0.164676
     20          1           0       -1.161263   -2.007338   -0.608683
 ---------------------------------------------------------------------
 Rotational constants (GHZ):           1.7160154           0.8596594           0.5904351
 Leave Link  202 at Tue Jan 30 19:02:56 2024, MaxMem=  1073741824 cpu:               0.1 elap:               0.1
 (Enter /share/software/user/restricted/gaussian/g16.B01/l301.exe)
 Standard basis: 3-21G* (6D, 7F)
 Ernie: Thresh=  0.10000D-02 Tol=  0.10000D-05 Strict=F.
 There are   117 symmetry adapted cartesian basis functions of A   symmetry.
 There are   117 symmetry adapted basis functions of A   symmetry.
   117 basis functions,   192 primitive gaussians,   117 cartesian basis functions
    40 alpha electrons       40 beta electrons
       nuclear repulsion energy       582.6170478179 Hartrees.
 IExCor=  402 DFT=T Ex+Corr=B3LYP ExCW=0 ScaHFX=  0.200000
 ScaDFX=  0.800000  0.720000  1.000000  0.810000 ScalE2=  1.000000  1.000000
 IRadAn=      5 IRanWt=     -1 IRanGd=            0 ICorTp=0 IEmpDi=  4
 NAtoms=   20 NActive=   20 NUniq=   20 SFac= 1.00D+00 NAtFMM=   60 NAOKFM=F Big=F
 Integral buffers will be    131072 words long.
 Regular integral format.
 Two-electron integral symmetry is turned on.
 Force inversion solution in PCM.
 ------------------------------------------------------------------------------
 Polarizable Continuum Model (PCM)
 =================================
 Model                : PCM.
 Atomic radii         : UFF (Universal Force Field).
 Polarization charges : Total charges.
 Charge compensation  : None.
 Solution method      : Matrix inversion.
 Cavity type          : Scaled VdW (van der Waals Surface) (Alpha=1.100).
 Cavity algorithm     : GePol (No added spheres)
                        Default sphere list used, NSphG=   20.
                        Lebedev-Laikov grids with approx.  5.0 points / Ang**2.
                        Smoothing algorithm: York/Karplus (Gamma=1.0000).
                        Polarization charges: spherical gaussians, with
                                              point-specific exponents (IZeta= 3).
                        Self-potential: point-specific (ISelfS= 7).
                        Self-field    : sphere-specific E.n sum rule (ISelfD= 2).
 1st derivatives      : Analytical E(r).r(x)/FMM algorithm (CHGder, D1EAlg=3).
                        Cavity 1st derivative terms included.
 2nd derivatives      : Analytical E(r).r(xy)/FMM algorithm (CHGder, D2EAlg=3).
                        Cavity 2nd derivative terms included.
 Solvent              : Water, Eps=  78.355300 Eps(inf)=   1.777849
 ------------------------------------------------------------------------------
 Spheres list:
 ISph  on   Nord     Re0    Alpha      Xe            Ye            Ze
    1   N      1    1.8300  1.100     -3.722078      0.257034      0.282515
    2   C      2    1.9255  1.100     -2.386476     -0.013201      0.406955
    3   C      3    1.9255  1.100     -1.409388      0.421980     -0.398118
    4   C      4    1.9255  1.100      0.013012      0.105611     -0.181277
    5   C      5    1.9255  1.100      0.941025      1.153495     -0.053310
    6   O      6    1.7500  1.100      0.506495      2.450761     -0.146950
    7   C      7    1.9255  1.100      2.297611      0.901091      0.169019
    8   C      8    1.9255  1.100      2.750888     -0.414142      0.258057
    9   C      9    1.9255  1.100      1.853130     -1.469583      0.111981
   10   C     10    1.9255  1.100      0.501455     -1.210180     -0.116570
   11   O     11    1.7500  1.100     -0.293317     -2.312249     -0.294095
   12   H     12    1.4430  1.100     -4.002457      0.617154     -0.626221
   13   H     13    1.4430  1.100     -4.338187     -0.469044      0.639566
   14   H     14    1.4430  1.100     -2.161571     -0.634153      1.274579
   15   H     15    1.4430  1.100     -1.621511      1.091729     -1.226355
   16   H     16    1.4430  1.100      1.246913      3.046867      0.048749
   17   H     17    1.4430  1.100      3.011066      1.712877      0.272442
   18   H     18    1.4430  1.100      3.804045     -0.619192      0.431582
   19   H     19    1.4430  1.100      2.204539     -2.496660      0.164676
   20   H     20    1.4430  1.100     -1.161263     -2.007338     -0.608683
 ------------------------------------------------------------------------------
 GePol: Number of generator spheres                  =      20
 GePol: Total number of spheres                      =      20
 GePol: Number of exposed spheres                    =      20 (100.00%)
 GePol: Number of points                             =    1669
 GePol: Average weight of points                     =       0.13
 GePol: Minimum weight of points                     =   0.40D-10
 GePol: Maximum weight of points                     =    0.20577
 GePol: Number of points with low weight             =     108
 GePol: Fraction of low-weight points (<1% of avg)   =       6.47%
 GePol: Cavity surface area                          =    216.802 Ang**2
 GePol: Cavity volume                                =    218.013 Ang**3
 Leave Link  301 at Tue Jan 30 19:02:56 2024, MaxMem=  1073741824 cpu:               0.7 elap:               0.1
 (Enter /share/software/user/restricted/gaussian/g16.B01/l302.exe)
 NPDir=0 NMtPBC=     1 NCelOv=     1 NCel=       1 NClECP=     1 NCelD=      1
         NCelK=      1 NCelE2=     1 NClLst=     1 CellRange=     0.0.
 One-electron integrals computed using PRISM.
 One-electron integral symmetry used in STVInt
 NBasis=   117 RedAO= T EigKep=  1.51D-03  NBF=   117
 NBsUse=   117 1.00D-06 EigRej= -1.00D+00 NBFU=   117
 Precomputing XC quadrature grid using
 IXCGrd= 4 IRadAn=           5 IRanWt=          -1 IRanGd=           0 AccXCQ= 0.00D+00.
 Generated NRdTot=       0 NPtTot=           0 NUsed=           0 NTot=          32
 NSgBfM=   116   116   116   116   116 MxSgAt=    20 MxSgA2=    20.
 Leave Link  302 at Tue Jan 30 19:02:56 2024, MaxMem=  1073741824 cpu:               1.7 elap:               0.3
 (Enter /share/software/user/restricted/gaussian/g16.B01/l303.exe)
 DipDrv:  MaxL=1.
 Leave Link  303 at Tue Jan 30 19:02:57 2024, MaxMem=  1073741824 cpu:               0.3 elap:               0.1
 (Enter /share/software/user/restricted/gaussian/g16.B01/l308.exe)
 Leave Link  308 at Tue Jan 30 19:02:57 2024, MaxMem=  1073741824 cpu:               0.3 elap:               0.1
 (Enter /share/software/user/restricted/gaussian/g16.B01/l401.exe)
 ExpMin= 1.83D-01 ExpMax= 3.22D+02 ExpMxC= 3.22D+02 IAcc=3 IRadAn=         5 AccDes= 0.00D+00
 Harris functional with IExCor=  402 and IRadAn=       5 diagonalized for initial guess.
 HarFok:  IExCor=  402 AccDes= 0.00D+00 IRadAn=         5 IDoV= 1 UseB2=F ITyADJ=14
 ICtDFT=  3500011 ScaDFX=  1.000000  1.000000  1.000000  1.000000
 FoFCou: FMM=F IPFlag=           0 FMFlag=      100000 FMFlg1=           0
         NFxFlg=           0 DoJE=T BraDBF=F KetDBF=T FulRan=T
         wScrn=  0.000000 ICntrl=       500 IOpCl=  0 I1Cent=   200000004 NGrid=           0
         NMat0=    1 NMatS0=      1 NMatT0=    0 NMatD0=    1 NMtDS0=    0 NMtDT0=    0
 Petite list used in FoFCou.
 Harris En= -512.586309859005    
 JPrj=0 DoOrth=F DoCkMO=F.
 Leave Link  401 at Tue Jan 30 19:02:58 2024, MaxMem=  1073741824 cpu:               5.6 elap:               0.7
 (Enter /share/software/user/restricted/gaussian/g16.B01/l502.exe)
 Integral symmetry usage will be decided dynamically.
 Closed shell SCF:
 Using DIIS extrapolation, IDIIS=  1040.
 NGot=  1073741824 LenX=  1073711894 LenY=  1073697764
 Requested convergence on RMS density matrix=1.00D-08 within 128 cycles.
 Requested convergence on MAX density matrix=1.00D-06.
 Requested convergence on             energy=1.00D-06.
 No special actions if energy rises.
 Fock matrices will be formed incrementally for  20 cycles.

 Cycle   1  Pass 1  IDiag  1:
 FoFJK:  IHMeth= 1 ICntrl=       0 DoSepK=F KAlg= 0 I1Cent=           0 FoldK=F
 IRaf= 870000000 NMat=       1 IRICut=       1 DoRegI=T DoRafI=F ISym2E= 0 IDoP0=0 IntGTp=1.
 FoFCou: FMM=F IPFlag=           0 FMFlag=      100000 FMFlg1=           0
         NFxFlg=           0 DoJE=F BraDBF=F KetDBF=F FulRan=T
         wScrn=  0.000000 ICntrl=         0 IOpCl=  0 I1Cent=           0 NGrid=           0
         NMat0=    1 NMatS0=      1 NMatT0=    0 NMatD0=    1 NMtDS0=    0 NMtDT0=    0
 Symmetry not used in FoFCou.
 Inv3:  Mode=1 IEnd=     8356683.
 Iteration    1 A*A^-1 deviation from unit magnitude is 4.88D-15 for   1667.
 Iteration    1 A*A^-1 deviation from orthogonality  is 3.32D-15 for   1638   1050.
 Iteration    1 A^-1*A deviation from unit magnitude is 4.88D-15 for   1667.
 Iteration    1 A^-1*A deviation from orthogonality  is 1.74D-14 for   1184   1165.
 E= -512.411478650285    
 DIIS: error= 3.57D-02 at cycle   1 NSaved=   1.
 NSaved= 1 IEnMin= 1 EnMin= -512.411478650285     IErMin= 1 ErrMin= 3.57D-02
 ErrMax= 3.57D-02  0.00D+00 EMaxC= 1.00D-01 BMatC= 2.18D-01 BMatP= 2.18D-01
 IDIUse=3 WtCom= 6.43D-01 WtEn= 3.57D-01
 Coeff-Com:  0.100D+01
 Coeff-En:   0.100D+01
 Coeff:      0.100D+01
 Gap=     0.192 Goal=   None    Shift=    0.000
 GapD=    0.192 DampG=1.000 DampE=0.500 DampFc=0.5000 IDamp=-1.
 Damping current iteration by 5.00D-01
 RMSDP=7.89D-03 MaxDP=1.17D-01              OVMax= 1.56D-01

 Cycle   2  Pass 1  IDiag  1:
 RMSU=  3.93D-03    CP:  9.93D-01
 E= -512.508015598973     Delta-E=       -0.096536948688 Rises=F Damp=T
 DIIS: error= 6.38D-03 at cycle   2 NSaved=   2.
 NSaved= 2 IEnMin= 2 EnMin= -512.508015598973     IErMin= 2 ErrMin= 6.38D-03
 ErrMax= 6.38D-03  0.00D+00 EMaxC= 1.00D-01 BMatC= 8.86D-03 BMatP= 2.18D-01
 IDIUse=3 WtCom= 9.36D-01 WtEn= 6.38D-02
 Coeff-Com:  0.427D-02 0.996D+00
 Coeff-En:   0.000D+00 0.100D+01
 Coeff:      0.399D-02 0.996D+00
 Gap=     0.202 Goal=   None    Shift=    0.000
 RMSDP=1.54D-03 MaxDP=2.66D-02 DE=-9.65D-02 OVMax= 1.10D-01

 Cycle   3  Pass 1  IDiag  1:
 RMSU=  1.54D-03    CP:  9.91D-01  1.01D+00
 E= -512.604574215295     Delta-E=       -0.096558616322 Rises=F Damp=F
 DIIS: error= 9.49D-03 at cycle   3 NSaved=   3.
 NSaved= 3 IEnMin= 3 EnMin= -512.604574215295     IErMin= 2 ErrMin= 6.38D-03
 ErrMax= 9.49D-03  0.00D+00 EMaxC= 1.00D-01 BMatC= 4.97D-03 BMatP= 8.86D-03
 IDIUse=3 WtCom= 9.05D-01 WtEn= 9.49D-02
 Coeff-Com: -0.314D-01 0.426D+00 0.605D+00
 Coeff-En:   0.000D+00 0.000D+00 0.100D+01
 Coeff:     -0.284D-01 0.386D+00 0.642D+00
 Gap=     0.195 Goal=   None    Shift=    0.000
 RMSDP=9.91D-04 MaxDP=2.11D-02 DE=-9.66D-02 OVMax= 2.83D-02

 Cycle   4  Pass 1  IDiag  1:
 RMSU=  7.39D-04    CP:  9.94D-01  1.07D+00  6.08D-01
 E= -512.608605293667     Delta-E=       -0.004031078372 Rises=F Damp=F
 DIIS: error= 4.07D-03 at cycle   4 NSaved=   4.
 NSaved= 4 IEnMin= 4 EnMin= -512.608605293667     IErMin= 4 ErrMin= 4.07D-03
 ErrMax= 4.07D-03  0.00D+00 EMaxC= 1.00D-01 BMatC= 8.79D-04 BMatP= 4.97D-03
 IDIUse=3 WtCom= 9.59D-01 WtEn= 4.07D-02
 Coeff-Com: -0.450D-02 0.410D-01 0.309D+00 0.654D+00
 Coeff-En:   0.000D+00 0.000D+00 0.146D+00 0.854D+00
 Coeff:     -0.432D-02 0.394D-01 0.302D+00 0.663D+00
 Gap=     0.194 Goal=   None    Shift=    0.000
 RMSDP=4.15D-04 MaxDP=1.02D-02 DE=-4.03D-03 OVMax= 1.15D-02

 Cycle   5  Pass 1  IDiag  1:
 RMSU=  1.55D-04    CP:  9.93D-01  1.05D+00  7.18D-01  5.56D-01
 E= -512.609441627812     Delta-E=       -0.000836334145 Rises=F Damp=F
 DIIS: error= 6.29D-04 at cycle   5 NSaved=   5.
 NSaved= 5 IEnMin= 5 EnMin= -512.609441627812     IErMin= 5 ErrMin= 6.29D-04
 ErrMax= 6.29D-04  0.00D+00 EMaxC= 1.00D-01 BMatC= 9.05D-05 BMatP= 8.79D-04
 IDIUse=3 WtCom= 9.94D-01 WtEn= 6.29D-03
 Coeff-Com: -0.159D-02 0.101D-01 0.165D+00 0.410D+00 0.416D+00
 Coeff-En:   0.000D+00 0.000D+00 0.000D+00 0.000D+00 0.100D+01
 Coeff:     -0.158D-02 0.100D-01 0.164D+00 0.408D+00 0.420D+00
 Gap=     0.194 Goal=   None    Shift=    0.000
 RMSDP=1.04D-04 MaxDP=2.77D-03 DE=-8.36D-04 OVMax= 3.98D-03

 Cycle   6  Pass 1  IDiag  1:
 RMSU=  4.47D-05    CP:  9.93D-01  1.05D+00  7.18D-01  6.24D-01  4.89D-01
 E= -512.609534464640     Delta-E=       -0.000092836829 Rises=F Damp=F
 DIIS: error= 1.17D-04 at cycle   6 NSaved=   6.
 NSaved= 6 IEnMin= 6 EnMin= -512.609534464640     IErMin= 6 ErrMin= 1.17D-04
 ErrMax= 1.17D-04  0.00D+00 EMaxC= 1.00D-01 BMatC= 1.71D-06 BMatP= 9.05D-05
 IDIUse=3 WtCom= 9.99D-01 WtEn= 1.17D-03
 Coeff-Com: -0.200D-04 0.300D-03 0.415D-01 0.117D+00 0.168D+00 0.673D+00
 Coeff-En:   0.000D+00 0.000D+00 0.000D+00 0.000D+00 0.000D+00 0.100D+01
 Coeff:     -0.200D-04 0.300D-03 0.414D-01 0.117D+00 0.168D+00 0.673D+00
 Gap=     0.195 Goal=   None    Shift=    0.000
 RMSDP=1.71D-05 MaxDP=2.73D-04 DE=-9.28D-05 OVMax= 9.13D-04

 Cycle   7  Pass 1  IDiag  1:
 RMSU=  1.26D-05    CP:  9.93D-01  1.05D+00  7.18D-01  6.24D-01  5.26D-01
                    CP:  7.80D-01
 E= -512.609535604258     Delta-E=       -0.000001139618 Rises=F Damp=F
 DIIS: error= 7.61D-05 at cycle   7 NSaved=   7.
 NSaved= 7 IEnMin= 7 EnMin= -512.609535604258     IErMin= 7 ErrMin= 7.61D-05
 ErrMax= 7.61D-05  0.00D+00 EMaxC= 1.00D-01 BMatC= 5.79D-07 BMatP= 1.71D-06
 IDIUse=1 WtCom= 1.00D+00 WtEn= 0.00D+00
 Coeff-Com:  0.161D-03-0.875D-03 0.756D-02 0.281D-01 0.573D-01 0.422D+00
 Coeff-Com:  0.486D+00
 Coeff:      0.161D-03-0.875D-03 0.756D-02 0.281D-01 0.573D-01 0.422D+00
 Coeff:      0.486D+00
 Gap=     0.195 Goal=   None    Shift=    0.000
 RMSDP=7.01D-06 MaxDP=1.22D-04 DE=-1.14D-06 OVMax= 3.63D-04

 Cycle   8  Pass 1  IDiag  1:
 RMSU=  2.64D-06    CP:  9.93D-01  1.05D+00  7.18D-01  6.27D-01  5.21D-01
                    CP:  8.10D-01  5.40D-01
 E= -512.609536149250     Delta-E=       -0.000000544992 Rises=F Damp=F
 DIIS: error= 4.48D-06 at cycle   8 NSaved=   8.
 NSaved= 8 IEnMin= 8 EnMin= -512.609536149250     IErMin= 8 ErrMin= 4.48D-06
 ErrMax= 4.48D-06  0.00D+00 EMaxC= 1.00D-01 BMatC= 4.25D-09 BMatP= 5.79D-07
 IDIUse=1 WtCom= 1.00D+00 WtEn= 0.00D+00
 Coeff-Com:  0.564D-04-0.310D-03 0.153D-02 0.657D-02 0.153D-01 0.133D+00
 Coeff-Com:  0.172D+00 0.671D+00
 Coeff:      0.564D-04-0.310D-03 0.153D-02 0.657D-02 0.153D-01 0.133D+00
 Coeff:      0.172D+00 0.671D+00
 Gap=     0.195 Goal=   None    Shift=    0.000
 RMSDP=9.27D-07 MaxDP=2.10D-05 DE=-5.45D-07 OVMax= 2.07D-05

 Cycle   9  Pass 1  IDiag  1:
 RMSU=  7.78D-07    CP:  9.93D-01  1.05D+00  7.18D-01  6.27D-01  5.22D-01
                    CP:  8.11D-01  5.37D-01  8.37D-01
 E= -512.609536152856     Delta-E=       -0.000000003606 Rises=F Damp=F
 DIIS: error= 2.26D-06 at cycle   9 NSaved=   9.
 NSaved= 9 IEnMin= 9 EnMin= -512.609536152856     IErMin= 9 ErrMin= 2.26D-06
 ErrMax= 2.26D-06  0.00D+00 EMaxC= 1.00D-01 BMatC= 7.88D-10 BMatP= 4.25D-09
 IDIUse=1 WtCom= 1.00D+00 WtEn= 0.00D+00
 Coeff-Com:  0.591D-05-0.362D-04-0.230D-03-0.495D-03-0.206D-03 0.943D-02
 Coeff-Com:  0.176D-01 0.315D+00 0.659D+00
 Coeff:      0.591D-05-0.362D-04-0.230D-03-0.495D-03-0.206D-03 0.943D-02
 Coeff:      0.176D-01 0.315D+00 0.659D+00
 Gap=     0.195 Goal=   None    Shift=    0.000
 RMSDP=3.57D-07 MaxDP=7.59D-06 DE=-3.61D-09 OVMax= 1.05D-05

 Cycle  10  Pass 1  IDiag  1:
 RMSU=  1.80D-07    CP:  9.93D-01  1.05D+00  7.18D-01  6.27D-01  5.22D-01
                    CP:  8.14D-01  5.44D-01  8.81D-01  7.16D-01
 E= -512.609536153660     Delta-E=       -0.000000000804 Rises=F Damp=F
 DIIS: error= 6.99D-07 at cycle  10 NSaved=  10.
 NSaved=10 IEnMin=10 EnMin= -512.609536153660     IErMin=10 ErrMin= 6.99D-07
 ErrMax= 6.99D-07  0.00D+00 EMaxC= 1.00D-01 BMatC= 4.55D-11 BMatP= 7.88D-10
 IDIUse=1 WtCom= 1.00D+00 WtEn= 0.00D+00
 Coeff-Com: -0.106D-05 0.327D-05-0.194D-03-0.616D-03-0.102D-02-0.278D-02
 Coeff-Com: -0.115D-02 0.117D+00 0.307D+00 0.582D+00
 Coeff:     -0.106D-05 0.327D-05-0.194D-03-0.616D-03-0.102D-02-0.278D-02
 Coeff:     -0.115D-02 0.117D+00 0.307D+00 0.582D+00
 Gap=     0.195 Goal=   None    Shift=    0.000
 RMSDP=8.69D-08 MaxDP=1.74D-06 DE=-8.04D-10 OVMax= 2.81D-06

 Cycle  11  Pass 1  IDiag  1:
 RMSU=  7.68D-08    CP:  9.93D-01  1.05D+00  7.18D-01  6.27D-01  5.22D-01
                    CP:  8.14D-01  5.43D-01  8.83D-01  7.47D-01  9.40D-01
 E= -512.609536153693     Delta-E=       -0.000000000032 Rises=F Damp=F
 DIIS: error= 3.28D-07 at cycle  11 NSaved=  11.
 NSaved=11 IEnMin=11 EnMin= -512.609536153693     IErMin=11 ErrMin= 3.28D-07
 ErrMax= 3.28D-07  0.00D+00 EMaxC= 1.00D-01 BMatC= 6.70D-12 BMatP= 4.55D-11
 IDIUse=1 WtCom= 1.00D+00 WtEn= 0.00D+00
 Coeff-Com: -0.786D-06 0.367D-05-0.344D-04-0.133D-03-0.329D-03-0.176D-02
 Coeff-Com: -0.256D-02-0.817D-03 0.275D-01 0.296D+00 0.682D+00
 Coeff:     -0.786D-06 0.367D-05-0.344D-04-0.133D-03-0.329D-03-0.176D-02
 Coeff:     -0.256D-02-0.817D-03 0.275D-01 0.296D+00 0.682D+00
 Gap=     0.195 Goal=   None    Shift=    0.000
 RMSDP=2.89D-08 MaxDP=3.52D-07 DE=-3.24D-11 OVMax= 1.41D-06

 Cycle  12  Pass 1  IDiag  1:
 RMSU=  1.20D-08    CP:  9.93D-01  1.05D+00  7.18D-01  6.27D-01  5.22D-01
                    CP:  8.14D-01  5.43D-01  8.87D-01  7.54D-01  9.61D-01
                    CP:  7.32D-01
 E= -512.609536153699     Delta-E=       -0.000000000006 Rises=F Damp=F
 DIIS: error= 2.39D-08 at cycle  12 NSaved=  12.
 NSaved=12 IEnMin=12 EnMin= -512.609536153699     IErMin=12 ErrMin= 2.39D-08
 ErrMax= 2.39D-08  0.00D+00 EMaxC= 1.00D-01 BMatC= 1.33D-13 BMatP= 6.70D-12
 IDIUse=1 WtCom= 1.00D+00 WtEn= 0.00D+00
 Coeff-Com: -0.281D-06 0.149D-05-0.889D-05-0.396D-04-0.115D-03-0.666D-03
 Coeff-Com: -0.108D-02-0.369D-02 0.253D-02 0.911D-01 0.246D+00 0.665D+00
 Coeff:     -0.281D-06 0.149D-05-0.889D-05-0.396D-04-0.115D-03-0.666D-03
 Coeff:     -0.108D-02-0.369D-02 0.253D-02 0.911D-01 0.246D+00 0.665D+00
 Gap=     0.195 Goal=   None    Shift=    0.000
 RMSDP=5.01D-09 MaxDP=1.01D-07 DE=-6.03D-12 OVMax= 1.39D-07

 Error on total polarization charges =  0.00415
 SCF Done:  E(RB3LYP) =  -512.609536154     A.U. after   12 cycles
            NFock= 12  Conv=0.50D-08     -V/T= 2.0080
 KE= 5.085315920105D+02 PE=-2.361041153772D+03 EE= 7.572829777901D+02
 Leave Link  502 at Tue Jan 30 19:03:10 2024, MaxMem=  1073741824 cpu:              93.8 elap:              12.0
 (Enter /share/software/user/restricted/gaussian/g16.B01/l801.exe)
 DoSCS=F DFT=T ScalE2(SS,OS)=  1.000000  1.000000
 ExpMin= 1.83D-01 ExpMax= 3.22D+02 ExpMxC= 3.22D+02 IAcc=3 IRadAn=         5 AccDes= 0.00D+00
 HarFok:  IExCor=  205 AccDes= 0.00D+00 IRadAn=         5 IDoV=-2 UseB2=F ITyADJ=14
 ICtDFT= 12500011 ScaDFX=  1.000000  1.000000  1.000000  1.000000
 Largest valence mixing into a core orbital is  1.84D-04
 Largest core mixing into a valence orbital is  6.75D-05
 Range of M.O.s used for correlation:    12   117
 NBasis=   117 NAE=    40 NBE=    40 NFC=    11 NFV=     0
 NROrb=    106 NOA=    29 NOB=    29 NVA=    77 NVB=    77
 Leave Link  801 at Tue Jan 30 19:03:10 2024, MaxMem=  1073741824 cpu:               1.0 elap:               0.2
 (Enter /share/software/user/restricted/gaussian/g16.B01/l914.exe)
 RHF ground state
 Keep R1, R2, and R3 ints in memory in canonical form, NReq=89052112.
 FoFCou: FMM=F IPFlag=           0 FMFlag=           0 FMFlg1=           0
         NFxFlg=           0 DoJE=F BraDBF=F KetDBF=F FulRan=T
         wScrn=  0.000000 ICntrl=       600 IOpCl=  0 I1Cent=           0 NGrid=           0
         NMat0=    1 NMatS0=   6903 NMatT0=    0 NMatD0=    1 NMtDS0=    0 NMtDT0=    0
 Symmetry not used in FoFCou.
 Two-electron integral symmetry not used.
 MDV=  1073741824 DFT=T DoStab=F Mixed=T DoRPA=T DoScal=F NonHer=T
 NEqPCM:  Using equilibrium solvation (IEInf=0, Eps=  78.3553, EpsInf=   1.7778)
 Making orbital integer symmetry assigments:
 Orbital symmetries:
       Occupied  (A) (A) (A) (A) (A) (A) (A) (A) (A) (A) (A) (A)
                 (A) (A) (A) (A) (A) (A) (A) (A) (A) (A) (A) (A)
                 (A) (A) (A) (A) (A) (A) (A) (A) (A) (A) (A) (A)
                 (A) (A) (A) (A)
       Virtual   (A) (A) (A) (A) (A) (A) (A) (A) (A) (A) (A) (A)
                 (A) (A) (A) (A) (A) (A) (A) (A) (A) (A) (A) (A)
                 (A) (A) (A) (A) (A) (A) (A) (A) (A) (A) (A) (A)
                 (A) (A) (A) (A) (A) (A) (A) (A) (A) (A) (A) (A)
                 (A) (A) (A) (A) (A) (A) (A) (A) (A) (A) (A) (A)
                 (A) (A) (A) (A) (A) (A) (A) (A) (A) (A) (A) (A)
                 (A) (A) (A) (A) (A)
    20 initial guesses have been made.
 Convergence on wavefunction:    0.000001000000000
 Davidson Disk Diagonalization:  ConvIn= 1.00D-06 SkipCon=T Conv= 1.00D-06.
 Max sub-space:  2000 roots to seek:    20 dimension of matrix:         4466
 Iteration     1 Dimension    20 NMult     0 NNew     20
 CISAX will form    20 AO SS matrices at one time.
 NMat=    20 NSing=    20 JSym2X= 0.
 New state      4 was old state      5
 New state      5 was old state      7
 Excitation Energies [eV] at current iteration:
 Root      1 :     4.890816451573882
 Root      2 :     4.949261117643649
 Root      3 :     5.628268574839691
 Root      4 :     6.119213546239134
 Root      5 :     6.390242992151595
 Root      6 :     6.903367247589742
 Root      7 :     7.079576560962151
 Root      8 :     7.264117026223475
 Root      9 :     7.460949723300820
 Root     10 :     7.562089260770598
 Root     11 :     7.595227700862974
 Root     12 :     7.764656077653414
 Root     13 :     7.776783504409736
 Root     14 :     7.926229811424619
 Root     15 :     8.066712918288411
 Root     16 :     8.200461807003412
 Root     17 :     8.405059722716446
 Root     18 :     8.476414889000667
 Root     19 :     8.623914071620209
 Root     20 :     9.017286918479536
 Iteration     2 Dimension    30 NMult    20 NNew     10
 CISAX will form    10 AO SS matrices at one time.
 NMat=    10 NSing=    10 JSym2X= 0.
 Root      1 not converged, maximum delta is    0.249141024760483
 Root      2 not converged, maximum delta is    0.313353251470354
 Root      3 not converged, maximum delta is    0.121056705994179
 Root      4 not converged, maximum delta is    0.087774039614594
 Root      5 not converged, maximum delta is    0.317904864503714
 Excitation Energies [eV] at current iteration:
 Root      1 :     4.704904371276809   Change is   -0.185912080297073
 Root      2 :     4.879765169155152   Change is   -0.069495948488498
 Root      3 :     5.458852841282662   Change is   -0.169415733557029
 Root      4 :     5.931784314092111   Change is   -0.187429232147023
 Root      5 :     6.309016235523004   Change is   -0.081226756628590
 Iteration     3 Dimension    40 NMult    30 NNew     10
 CISAX will form    10 AO SS matrices at one time.
 NMat=    10 NSing=    10 JSym2X= 0.
 Root      1 not converged, maximum delta is    0.009304754700527
 Root      2 not converged, maximum delta is    0.002259757223946
 Root      3 not converged, maximum delta is    0.009633043675790
 Root      4 not converged, maximum delta is    0.036550131028140
 Root      5 not converged, maximum delta is    0.361145361456782
 Excitation Energies [eV] at current iteration:
 Root      1 :     4.696928680258987   Change is   -0.007975691017823
 Root      2 :     4.877104076238096   Change is   -0.002661092917056
 Root      3 :     5.451178545568692   Change is   -0.007674295713970
 Root      4 :     5.916665553797522   Change is   -0.015118760294590
 Root      5 :     6.151750997722619   Change is   -0.157265237800386
 Iteration     4 Dimension    50 NMult    40 NNew     10
 CISAX will form    10 AO SS matrices at one time.
 NMat=    10 NSing=    10 JSym2X= 0.
 Root      1 not converged, maximum delta is    0.001667261529035
 Root      2 not converged, maximum delta is    0.000392005062720
 Root      3 not converged, maximum delta is    0.001408753785094
 Root      4 not converged, maximum delta is    0.005451865115759
 Root      5 not converged, maximum delta is    0.019295108312651
 Excitation Energies [eV] at current iteration:
 Root      1 :     4.696403874156502   Change is   -0.000524806102484
 Root      2 :     4.877007819431530   Change is   -0.000096256806566
 Root      3 :     5.450462186463931   Change is   -0.000716359104761
 Root      4 :     5.915605045261243   Change is   -0.001060508536278
 Root      5 :     6.130718486958714   Change is   -0.021032510763905
 Iteration     5 Dimension    60 NMult    50 NNew     10
 CISAX will form    10 AO SS matrices at one time.
 NMat=    10 NSing=    10 JSym2X= 0.
 Root      1 not converged, maximum delta is    0.000142844078232
 Root      2 not converged, maximum delta is    0.000082659476032
 Root      3 not converged, maximum delta is    0.000190887254268
 Root      4 not converged, maximum delta is    0.000480732647687
 Root      5 not converged, maximum delta is    0.002267867959242
 Excitation Energies [eV] at current iteration:
 Root      1 :     4.696386597036460   Change is   -0.000017277120043
 Root      2 :     4.877002639642074   Change is   -0.000005179789455
 Root      3 :     5.450423491392913   Change is   -0.000038695071019
 Root      4 :     5.915541442397691   Change is   -0.000063602863552
 Root      5 :     6.129414820933857   Change is   -0.001303666024858
 Iteration     6 Dimension    70 NMult    60 NNew     10
 CISAX will form    10 AO SS matrices at one time.
 NMat=    10 NSing=    10 JSym2X= 0.
 Root      1 not converged, maximum delta is    0.000035507552955
 Root      2 not converged, maximum delta is    0.000026758228055
 Root      3 not converged, maximum delta is    0.000092892229038
 Root      4 not converged, maximum delta is    0.000104731558421
 Root      5 not converged, maximum delta is    0.001178924546035
 Excitation Energies [eV] at current iteration:
 Root      1 :     4.696385951236229   Change is   -0.000000645800231
 Root      2 :     4.877002408006278   Change is   -0.000000231635797
 Root      3 :     5.450421476755658   Change is   -0.000002014637255
 Root      4 :     5.915536918488648   Change is   -0.000004523909043
 Root      5 :     6.129330623572076   Change is   -0.000084197361780
 Iteration     7 Dimension    80 NMult    70 NNew     10
 CISAX will form    10 AO SS matrices at one time.
 NMat=    10 NSing=    10 JSym2X= 0.
 Root      1 not converged, maximum delta is    0.000010173900882
 Root      2 not converged, maximum delta is    0.000005398487841
 Root      3 not converged, maximum delta is    0.000018126698941
 Root      4 not converged, maximum delta is    0.000031388681797
 Root      5 not converged, maximum delta is    0.000303169735642
 Excitation Energies [eV] at current iteration:
 Root      1 :     4.696385924605702   Change is   -0.000000026630526
 Root      2 :     4.877002396688464   Change is   -0.000000011317813
 Root      3 :     5.450421333042117   Change is   -0.000000143713540
 Root      4 :     5.915536544453194   Change is   -0.000000374035454
 Root      5 :     6.129321647116933   Change is   -0.000008976455144
 Iteration     8 Dimension    90 NMult    80 NNew     10
 CISAX will form    10 AO SS matrices at one time.
 NMat=    10 NSing=    10 JSym2X= 0.
 Root      1 not converged, maximum delta is    0.000001876892830
 Root      2 not converged, maximum delta is    0.000001158113925
 Root      3 not converged, maximum delta is    0.000003735901280
 Root      4 not converged, maximum delta is    0.000009861376036
 Root      5 not converged, maximum delta is    0.000037770781792
 Excitation Energies [eV] at current iteration:
 Root      1 :     4.696385923346977   Change is   -0.000000001258725
 Root      2 :     4.877002396066371   Change is   -0.000000000622093
 Root      3 :     5.450421324439200   Change is   -0.000000008602917
 Root      4 :     5.915536509854515   Change is   -0.000000034598679
 Root      5 :     6.129321018385677   Change is   -0.000000628731255
 Iteration     9 Dimension   100 NMult    90 NNew     10
 CISAX will form    10 AO SS matrices at one time.
 NMat=    10 NSing=    10 JSym2X= 0.
 Root      1 has converged.
 Root      2 has converged.
 Root      3 not converged, maximum delta is    0.000001041604808
 Root      4 not converged, maximum delta is    0.000002078272978
 Root      5 not converged, maximum delta is    0.000015125699040
 Excitation Energies [eV] at current iteration:
 Root      1 :     4.696385923287234   Change is   -0.000000000059742
 Root      2 :     4.877002396035744   Change is   -0.000000000030628
 Root      3 :     5.450421323825904   Change is   -0.000000000613296
 Root      4 :     5.915536506691362   Change is   -0.000000003163153
 Root      5 :     6.129320953682550   Change is   -0.000000064703127
 Iteration    10 Dimension   106 NMult   100 NNew      6
 CISAX will form     6 AO SS matrices at one time.
 NMat=     6 NSing=     6 JSym2X= 0.
 Root      1 has converged.
 Root      2 has converged.
 Root      3 has converged.
 Root      4 has converged.
 Root      5 not converged, maximum delta is    0.000004239132126
 Excitation Energies [eV] at current iteration:
 Root      1 :     4.696385923285835   Change is   -0.000000000001400
 Root      2 :     4.877002396035794   Change is    0.000000000000050
 Root      3 :     5.450421323785919   Change is   -0.000000000039985
 Root      4 :     5.915536506478948   Change is   -0.000000000212414
 Root      5 :     6.129320948654380   Change is   -0.000000005028170
 Iteration    11 Dimension   108 NMult   106 NNew      2
 CISAX will form     2 AO SS matrices at one time.
 NMat=     2 NSing=     2 JSym2X= 0.
 Root      1 has converged.
 Root      2 has converged.
 Root      3 has converged.
 Root      4 has converged.
 Root      5 not converged, maximum delta is    0.000001048021435
 Excitation Energies [eV] at current iteration:
 Root      1 :     4.696385923285781   Change is   -0.000000000000053
 Root      2 :     4.877002396035777   Change is   -0.000000000000017
 Root      3 :     5.450421323785904   Change is   -0.000000000000015
 Root      4 :     5.915536506475738   Change is   -0.000000000003210
 Root      5 :     6.129320948220885   Change is   -0.000000000433495
 Iteration    12 Dimension   110 NMult   108 NNew      2
 CISAX will form     2 AO SS matrices at one time.
 NMat=     2 NSing=     2 JSym2X= 0.
 Root      1 has converged.
 Root      2 has converged.
 Root      3 has converged.
 Root      4 has converged.
 Root      5 has converged.
 Excitation Energies [eV] at current iteration:
 Root      1 :     4.696385923285747   Change is   -0.000000000000035
 Root      2 :     4.877002396035761   Change is   -0.000000000000017
 Root      3 :     5.450421323785919   Change is    0.000000000000015
 Root      4 :     5.915536506475640   Change is   -0.000000000000097
 Root      5 :     6.129320948183023   Change is   -0.000000000037862
 Convergence achieved on expansion vectors.
 ***********************************************************************
 Excited states from <AA,BB:AA,BB> singles matrix:
 ***********************************************************************
 
 1PDM for each excited state written to RWF  633
 Ground to excited state transition densities written to RWF  633
 Ground to excited state transition electric dipole moments (Au):
       state          X           Y           Z        Dip. S.      Osc.
         1         1.8119     -0.1661     -0.1345      3.3287      0.3830
         2        -0.3696     -0.3346      0.0169      0.2489      0.0297
         3         0.2247      1.1298      0.0491      1.3293      0.1775
         4         0.9371      0.0682     -0.1611      0.9089      0.1317
         5         1.6461     -0.2374      0.0268      2.7667      0.4155
 Ground to excited state transition velocity dipole moments (Au):
       state          X           Y           Z        Dip. S.      Osc.
         1        -0.2685      0.0207      0.0157      0.0728      0.2811
         2         0.0545      0.0544     -0.0021      0.0059      0.0221
         3        -0.0387     -0.1967     -0.0134      0.0404      0.1344
         4        -0.1878     -0.0094      0.0175      0.0357      0.1094
         5        -0.3083      0.0431     -0.0071      0.0969      0.2869
 Ground to excited state transition magnetic dipole moments (Au):
       state          X           Y           Z
         1         0.0936      0.1222      0.2419
         2        -0.0760     -0.0360      0.4896
         3         0.0597     -0.0170     -0.9151
         4         0.0238      0.0993      0.1501
         5         0.0973      0.1650      0.0443
 Ground to excited state transition velocity quadrupole moments (Au):
       state          XX          YY          ZZ          XY          XZ          YZ
         1         0.5272     -0.2224      0.0322      0.0389     -0.1757     -0.0207
         2        -0.0159     -0.0171     -0.0045      0.1973      0.0342      0.0127
         3        -0.1363      0.0358      0.0038     -0.3899     -0.0046     -0.0027
         4         0.5001     -0.2242      0.0443     -0.0173     -0.1583     -0.0390
         5        -0.2864      0.2028     -0.0778      0.2647     -0.1689      0.0496
 <0|del|b> * <b|rxdel|0> + <0|del|b> * <b|delr+rdel|0>
 Rotatory Strengths (R) in cgs (10**-40 erg-esu-cm/Gauss)
       state          XX          YY          ZZ    R(velocity)    E-M Angle
         1        21.6779    -33.5785    -65.0948    -25.6651      104.06
         2       -10.4117     -8.0289     -9.7262     -9.3889      100.75
         3        35.1255      8.5102      3.2443     15.6267       85.87
         4        -0.1459      9.4138    -18.2579     -2.9967       94.62
         5        19.1634    -68.6791    -23.3554    -24.2904      112.28
 1/2[<0|r|b>*<b|rxdel|0> + (<0|rxdel|b>*<b|r|0>)*]
 Rotatory Strengths (R) in cgs (10**-40 erg-esu-cm/Gauss)
       state          XX          YY          ZZ     R(length)
         1      -119.8747     14.3559     23.0100    -27.5029
         2       -19.8795     -8.5171     -5.8565    -11.4177
         3        -9.4831     13.6003     31.7930     11.9701
         4       -15.7468     -4.7919     17.1064     -1.1441
         5      -113.3154     27.7073     -0.8392    -28.8157
  1/2[<0|del|b>*<b|r|0> + (<0|r|b>*<b|del|0>)*] (Au)
       state          X           Y           Z        Dip. S.   Osc.(frdel)
         1        -0.4865     -0.0034     -0.0021      0.4920      0.3280
         2        -0.0201     -0.0182     -0.0000      0.0384      0.0256
         3        -0.0087     -0.2222     -0.0007      0.2316      0.1544
         4        -0.1760     -0.0006     -0.0028      0.1795      0.1196
         5        -0.5075     -0.0102     -0.0002      0.5179      0.3453

 Excitation energies and oscillator strengths:
 
 Excited State   1:      Singlet-A      4.6964 eV  264.00 nm  f=0.3830  <S**2>=0.000
      40 -> 41         0.69521
 This state for optimization and/or second-order correction.
 Total Energy, E(TD-HF/TD-DFT) =  -512.436947147    
 Copying the excited state density for this state as the 1-particle RhoCI density.
 
 Excited State   2:      Singlet-A      4.8770 eV  254.22 nm  f=0.0297  <S**2>=0.000
      38 -> 42         0.10701
      39 -> 41         0.53667
      40 -> 42         0.43663
 
 Excited State   3:      Singlet-A      5.4504 eV  227.48 nm  f=0.1775  <S**2>=0.000
      38 -> 42        -0.19188
      39 -> 41        -0.40247
      40 -> 42         0.54287
 
 Excited State   4:      Singlet-A      5.9155 eV  209.59 nm  f=0.1317  <S**2>=0.000
      38 -> 41         0.52854
      38 -> 43        -0.10676
      40 -> 43        -0.44430
 
 Excited State   5:      Singlet-A      6.1293 eV  202.28 nm  f=0.4155  <S**2>=0.000
      38 -> 41        -0.12869
      39 -> 42         0.65000
      40 -> 43        -0.20420
 SavETr:  write IOETrn=   770 NScale= 10 NData=  16 NLR=1 NState=    5 LETran=     100.
 The selected state is a singlet.
 CISGrd: IGrad=3 NXY=2 DFT=T
 CISAX will form     1 AO SS matrices at one time.
 NMat=     1 NSing=     1 JSym2X= 0.
 GePol: Maximum number of non-zero 1st derivatives   =     214
 GePol: Maximum number of non-zero 2nd derivatives   =     214
 Leave Link  914 at Tue Jan 30 19:04:13 2024, MaxMem=  1073741824 cpu:             493.3 elap:              62.5
 (Enter /share/software/user/restricted/gaussian/g16.B01/l1002.exe)
 Minotr:  Closed shell wavefunction.
          Computing CIS/TDA/TD derivatives.
          Using Z-Vector for PSCF gradient.
          Skipping F1 and S1 gradient terms here.
          IDoAtm=11111111111111111111
 NEqPCM:  Using equilibrium solvation (IEInf=0, Eps=  78.3553, EpsInf=   1.7778)
          Frozen-core window.
          Direct CPHF calculation.
          Differentiating once with respect to electric field.
                with respect to dipole field.
          Differentiating once with respect to nuclear coordinates.
          Requested convergence is 1.0D-10 RMS, and 1.0D-09 maximum.
          NewPWx=F KeepS1=T KeepF1=T KeepIn=T MapXYZ=F SortEE=F KeepMc=T.
 Keep R1 ints in memory in canonical form, NReq=31394402.
 FoFCou: FMM=F IPFlag=           0 FMFlag=           0 FMFlg1=           0
         NFxFlg=           0 DoJE=F BraDBF=F KetDBF=F FulRan=T
         wScrn=  0.000000 ICntrl=       600 IOpCl=  0 I1Cent=           0 NGrid=           0
         NMat0=    1 NMatS0=   6903 NMatT0=    0 NMatD0=    1 NMtDS0=    0 NMtDT0=    0
 Symmetry not used in FoFCou.
 Two-electron integral symmetry not used.
          MDV=    1073741824 using IRadAn=       5.
          Solving linear equations separately, MaxMat=       0.
          There are     1 degrees of freedom in the 1st order CPHF.  IDoFFX=0 NUNeed=     1.
 LinEq1:  Iter=  0 NonCon=     1 RMS=1.67D-02 Max=5.58D-01 NDo=     1
 AX will form     1 AO Fock derivatives at one time.
 LinEq1:  Iter=  1 NonCon=     1 RMS=6.40D-03 Max=1.62D-01 NDo=     1
 LinEq1:  Iter=  2 NonCon=     1 RMS=3.79D-03 Max=8.26D-02 NDo=     1
 LinEq1:  Iter=  3 NonCon=     1 RMS=1.03D-03 Max=2.83D-02 NDo=     1
 LinEq1:  Iter=  4 NonCon=     1 RMS=6.83D-04 Max=1.81D-02 NDo=     1
 LinEq1:  Iter=  5 NonCon=     1 RMS=2.90D-04 Max=6.21D-03 NDo=     1
 LinEq1:  Iter=  6 NonCon=     1 RMS=1.98D-04 Max=4.19D-03 NDo=     1
 LinEq1:  Iter=  7 NonCon=     1 RMS=9.86D-05 Max=1.24D-03 NDo=     1
 LinEq1:  Iter=  8 NonCon=     1 RMS=3.98D-05 Max=6.81D-04 NDo=     1
 LinEq1:  Iter=  9 NonCon=     1 RMS=2.16D-05 Max=2.46D-04 NDo=     1
 LinEq1:  Iter= 10 NonCon=     1 RMS=4.03D-06 Max=5.38D-05 NDo=     1
 LinEq1:  Iter= 11 NonCon=     1 RMS=2.92D-06 Max=7.53D-05 NDo=     1
 LinEq1:  Iter= 12 NonCon=     1 RMS=7.67D-07 Max=1.21D-05 NDo=     1
 LinEq1:  Iter= 13 NonCon=     1 RMS=4.50D-07 Max=7.84D-06 NDo=     1
 LinEq1:  Iter= 14 NonCon=     1 RMS=1.10D-07 Max=1.31D-06 NDo=     1
 LinEq1:  Iter= 15 NonCon=     1 RMS=6.16D-08 Max=1.24D-06 NDo=     1
 LinEq1:  Iter= 16 NonCon=     1 RMS=2.38D-08 Max=3.73D-07 NDo=     1
 LinEq1:  Iter= 17 NonCon=     1 RMS=3.52D-09 Max=6.46D-08 NDo=     1
 LinEq1:  Iter= 18 NonCon=     1 RMS=2.03D-09 Max=3.23D-08 NDo=     1
 LinEq1:  Iter= 19 NonCon=     1 RMS=6.47D-10 Max=9.88D-09 NDo=     1
 LinEq1:  Iter= 20 NonCon=     1 RMS=1.22D-10 Max=2.02D-09 NDo=     1
 LinEq1:  Iter= 21 NonCon=     1 RMS=8.38D-11 Max=1.12D-09 NDo=     1
 LinEq1:  Iter= 22 NonCon=     0 RMS=1.34D-11 Max=1.31D-10 NDo=     1
 Linear equations converged to 1.000D-10 1.000D-09 after    22 iterations.
          There are     1 degrees of freedom in the 1st order CPHF.  IDoFFX=0 NUNeed=     1.
 End of Minotr F.D. properties file   721 does not exist.
 End of Minotr F.D. properties file   722 does not exist.
 End of Minotr F.D. properties file   788 does not exist.
 Leave Link 1002 at Tue Jan 30 19:04:38 2024, MaxMem=  1073741824 cpu:             188.3 elap:              24.4
 (Enter /share/software/user/restricted/gaussian/g16.B01/l1101.exe)
 Using compressed Sx but separate Hx and Fx, NAtomX=    20.
 Will process     21 centers per pass.
 Leave Link 1101 at Tue Jan 30 19:04:38 2024, MaxMem=  1073741824 cpu:               1.0 elap:               0.4
 (Enter /share/software/user/restricted/gaussian/g16.B01/l1102.exe)
 Use density number 6.
 Symmetrizing basis deriv contribution to polar:
 IMax=3 JMax=2 DiffMx= 0.00D+00
 Leave Link 1102 at Tue Jan 30 19:04:38 2024, MaxMem=  1073741824 cpu:               0.4 elap:               0.1
 (Enter /share/software/user/restricted/gaussian/g16.B01/l1110.exe)
 Forming Gx(P) for the SCF density, NAtomX=    20.
 Integral derivatives from FoFJK, PRISM(SPDF).
 Do as many integral derivatives as possible in FoFJK.
 G2DrvN: MDV=    1073740128.
 G2DrvN: will do    21 centers at a time, making    1 passes.
 Calling FoFCou, ICntrl=  3107 FMM=F I1Cent=   0 AccDes= 0.00D+00.
 FoFJK:  IHMeth= 1 ICntrl=    3107 DoSepK=F KAlg= 0 I1Cent=           0 FoldK=F
 IRaf=         0 NMat=       1 IRICut=       1 DoRegI=T DoRafI=F ISym2E= 0 IDoP0=0 IntGTp=1.
 FoFCou: FMM=F IPFlag=           0 FMFlag=      100000 FMFlg1=           0
         NFxFlg=           0 DoJE=F BraDBF=F KetDBF=F FulRan=T
         wScrn=  0.000000 ICntrl=      3107 IOpCl=  0 I1Cent=           0 NGrid=           0
         NMat0=    1 NMatS0=      1 NMatT0=    0 NMatD0=    1 NMtDS0=    0 NMtDT0=    0
 Symmetry not used in FoFCou.
 NEqPCM:  Using equilibrium solvation (IEInf=0, Eps=  78.3553, EpsInf=   1.7778)
 G2PCM: DoFxE=T DoFxN=T DoGrad=T DoDP/DQ/DG/TGxP=FFFF NFrqRd=   0 IEInf=0 SqF1=F DoCFld=F IF1Alg=4.
 Forming Gx(P) for generalized density number  6 NAtomX=    20.
 Integral derivatives from FoFJK, PRISM(SPDF).
 Do as many integral derivatives as possible in FoFJK.
 G2DrvN: MDV=    1073740128.
 G2DrvN: will do    21 centers at a time, making    1 passes.
 Calling FoFCou, ICntrl=  3107 FMM=F I1Cent=   0 AccDes= 0.00D+00.
 NEqPCM:  Using equilibrium solvation (IEInf=0, Eps=  78.3553, EpsInf=   1.7778)
 G2PCM: DoFxE=T DoFxN=F DoGrad=F DoDP/DQ/DG/TGxP=FFFF NFrqRd=   0 IEInf=0 SqF1=F DoCFld=F IF1Alg=4.
 Forming Gx(T) for CIS/TDA/TD state  1 NAtomX=    20.
 Integral derivatives from FoFJK, PRISM(SPDF).
 Do as many integral derivatives as possible in FoFJK.
 G2DrvN: MDV=    1073740128.
 G2DrvN: will do    21 centers at a time, making    1 passes.
 Calling FoFCou, ICntrl=  3107 FMM=F I1Cent=   0 AccDes= 0.00D+00.
 NEqPCM:  Using equilibrium solvation (IEInf=0, Eps=  78.3553, EpsInf=   1.7778)
 G2PCM: DoFxE=T DoFxN=F DoGrad=F DoDP/DQ/DG/TGxP=FFFF NFrqRd=   0 IEInf=0 SqF1=T DoCFld=F IF1Alg=4.
 End of G2Drv F.D. properties file   721 does not exist.
 End of G2Drv F.D. properties file   722 does not exist.
 End of G2Drv F.D. properties file   788 does not exist.
 Leave Link 1110 at Tue Jan 30 19:05:37 2024, MaxMem=  1073741824 cpu:             463.2 elap:              58.0
 (Enter /share/software/user/restricted/gaussian/g16.B01/l1002.exe)
 Minotr:  Closed shell wavefunction.
          IDoAtm=11111111111111111111
 NEqPCM:  Using equilibrium solvation (IEInf=0, Eps=  78.3553, EpsInf=   1.7778)
          Frozen-core window.
          Direct CPHF calculation.
          Differentiating once with respect to electric field.
                with respect to dipole field.
          Differentiating once with respect to nuclear coordinates.
          Requested convergence is 1.0D-08 RMS, and 1.0D-07 maximum.
          Secondary convergence is 1.0D-12 RMS, and 1.0D-12 maximum.
          NewPWx=T KeepS1=T KeepF1=T KeepIn=T MapXYZ=F SortEE=F KeepMc=T.
         5940 words used for storage of precomputed grid.
 Keep R1 ints in memory in canonical form, NReq=31372254.
 FoFCou: FMM=F IPFlag=           0 FMFlag=           0 FMFlg1=           0
         NFxFlg=           0 DoJE=F BraDBF=F KetDBF=F FulRan=T
         wScrn=  0.000000 ICntrl=       600 IOpCl=  0 I1Cent=           0 NGrid=           0
         NMat0=    1 NMatS0=   6903 NMatT0=    0 NMatD0=    1 NMtDS0=    0 NMtDT0=    0
 Symmetry not used in FoFCou.
 Two-electron integral symmetry not used.
          MDV=    1073741824 using IRadAn=       1.
          Solving linear equations simultaneously, MaxMat=       0.
          There are    63 degrees of freedom in the 1st order CPHF.  IDoFFX=6 NUNeed=    63.
     60 vectors produced by pass  0 Test12= 4.89D-15 1.59D-09 XBig12= 1.72D+02 8.73D+00.
 AX will form    60 AO Fock derivatives at one time.
     60 vectors produced by pass  1 Test12= 4.89D-15 1.59D-09 XBig12= 1.45D+01 7.52D-01.
     60 vectors produced by pass  2 Test12= 4.89D-15 1.59D-09 XBig12= 1.15D-01 4.84D-02.
     60 vectors produced by pass  3 Test12= 4.89D-15 1.59D-09 XBig12= 1.80D-04 1.64D-03.
     60 vectors produced by pass  4 Test12= 4.89D-15 1.59D-09 XBig12= 1.71D-07 4.84D-05.
     33 vectors produced by pass  5 Test12= 4.89D-15 1.59D-09 XBig12= 1.23D-10 1.56D-06.
      3 vectors produced by pass  6 Test12= 4.89D-15 1.59D-09 XBig12= 7.02D-14 4.34D-08.
 InvSVY:  IOpt=1 It=  1 EMax= 7.11D-15
 Solved reduced A of dimension   336 with    63 vectors.
 FullF1:  Do perturbations      1 to      63.
 Isotropic polarizability for W=    0.000000      115.99 Bohr**3.
 Saving first derivative matrices.
 End of Minotr F.D. properties file   721 does not exist.
 End of Minotr F.D. properties file   722 does not exist.
 End of Minotr F.D. properties file   788 does not exist.
 Leave Link 1002 at Tue Jan 30 19:05:54 2024, MaxMem=  1073741824 cpu:             136.0 elap:              17.2
 (Enter /share/software/user/restricted/gaussian/g16.B01/l1014.exe)
 This link is doing    63 degrees of freedom
 Form MO integral derivatives with frozen-active canonical formalism.
 CISSec: MDV=    1073732734
 Doing TD-HF/TD-DFT second derivatives, IDoFFX=6 IOneXC=4 IRadAn=         1.
 Frozen orbitals handled with amplitudes over full window.
 Frozen-core window:  NFC=  11 NFV=   0.
 Symmetry is being used.
 Keep R1, R2, and R3 ints in memory in canonical form, NReq=79075562.
 FoFCou: FMM=F IPFlag=           0 FMFlag=           0 FMFlg1=           0
         NFxFlg=           0 DoJE=F BraDBF=F KetDBF=F FulRan=T
         wScrn=  0.000000 ICntrl=       600 IOpCl=  0 I1Cent=           0 NGrid=           0
         NMat0=    1 NMatS0=   6903 NMatT0=    0 NMatD0=    1 NMtDS0=    0 NMtDT0=    0
 Symmetry not used in FoFCou.
 The selected state is a singlet.
 CISGrX: IGrad=3 NXY=2 DFT=T
 CISAX will form    63 AO SS matrices at one time.
 NMat=    63 NSing=    63 JSym2X= 0.
     60 vectors produced by pass  0 Test12= 7.09D-15 1.59D-09 XBig12= 8.56D+02 1.91D+01.
 AX will form    60 AO Fock derivatives at one time.
     60 vectors produced by pass  1 Test12= 7.09D-15 1.59D-09 XBig12= 8.71D+03 4.76D+01.
     60 vectors produced by pass  2 Test12= 7.09D-15 1.59D-09 XBig12= 2.01D+02 3.03D+00.
     60 vectors produced by pass  3 Test12= 7.09D-15 1.59D-09 XBig12= 5.66D-01 1.12D-01.
     60 vectors produced by pass  4 Test12= 7.09D-15 1.59D-09 XBig12= 1.26D-03 4.45D-03.
     37 vectors produced by pass  5 Test12= 7.09D-15 1.59D-09 XBig12= 1.87D-06 1.72D-04.
      6 vectors produced by pass  6 Test12= 7.09D-15 1.59D-09 XBig12= 1.87D-09 5.24D-06.
      2 vectors produced by pass  7 Test12= 7.09D-15 1.59D-09 XBig12= 2.25D-12 1.43D-07.
      1 vectors produced by pass  8 Test12= 7.09D-15 1.59D-09 XBig12= 2.49D-15 4.54D-09.
 InvSVY:  IOpt=1 It=  1 EMax= 6.39D-14
 Solved reduced A of dimension   346 with    63 vectors.
 Tx.T =  1.94D-05 for pert.     1
 Tx.T = -5.49D-06 for pert.     2
 Tx.T = -9.56D-07 for pert.     3
 Tx.T = -4.32D-07 for pert.    14
 Tx.T = -4.02D-07 for pert.    31
 Tx.T = -3.71D-07 for pert.    23
 Tx.T =  3.50D-07 for pert.    26
 Tx.T = -3.42D-07 for pert.     8
 Tx.T = -3.28D-07 for pert.    12
 Tx.T =  2.87D-07 for pert.    11
 SavDET:  read IOETrn=   770 NScale= 10 NData=  16 NLR=1 NState=    5 NDeriv=    0 LETran=     100.
 SavDET: write IOETrn=   770 NScale= 10 NData=  16 NLR=1 NState=    5 NDeriv=   63 LETran=    1108.
 TDDxLx will form    63 C1x/S1x matrices at one time.
 Interchange theorem applied.
 FoFJK:  IHMeth= 1 ICntrl=    5100 DoSepK=F KAlg= 0 I1Cent=           0 FoldK=F
 IRaf=         0 NMat=       1 IRICut=       1 DoRegI=T DoRafI=F ISym2E= 0 IDoP0=0 IntGTp=1.
 D1PCM: PCM CHGder 1st derivatives, ID1Alg=3 FixD1E=F DoIter=F DoCFld=F I1PDM=6.
 Leave Link 1014 at Tue Jan 30 19:06:33 2024, MaxMem=  1073741824 cpu:             309.5 elap:              39.0
 (Enter /share/software/user/restricted/gaussian/g16.B01/l601.exe)
 Copying SCF densities to generalized density rwf, IOpCl= 0 IROHF=0.

 **********************************************************************

            Population analysis using the SCF Density.

 **********************************************************************

 Orbital symmetries:
       Occupied  (A) (A) (A) (A) (A) (A) (A) (A) (A) (A) (A) (A)
                 (A) (A) (A) (A) (A) (A) (A) (A) (A) (A) (A) (A)
                 (A) (A) (A) (A) (A) (A) (A) (A) (A) (A) (A) (A)
                 (A) (A) (A) (A)
       Virtual   (A) (A) (A) (A) (A) (A) (A) (A) (A) (A) (A) (A)
                 (A) (A) (A) (A) (A) (A) (A) (A) (A) (A) (A) (A)
                 (A) (A) (A) (A) (A) (A) (A) (A) (A) (A) (A) (A)
                 (A) (A) (A) (A) (A) (A) (A) (A) (A) (A) (A) (A)
                 (A) (A) (A) (A) (A) (A) (A) (A) (A) (A) (A) (A)
                 (A) (A) (A) (A) (A) (A) (A) (A) (A) (A) (A) (A)
                 (A) (A) (A) (A) (A)
 The electronic state is 1-A.
 Alpha  occ. eigenvalues --  -19.06341 -19.05822 -14.25682 -10.18967 -10.18802
 Alpha  occ. eigenvalues --  -10.16169 -10.13211 -10.12854 -10.11814 -10.11499
 Alpha  occ. eigenvalues --  -10.10979  -1.06379  -1.05986  -0.92081  -0.85482
 Alpha  occ. eigenvalues --   -0.78394  -0.73665  -0.71711  -0.63056  -0.61767
 Alpha  occ. eigenvalues --   -0.58755  -0.55658  -0.52694  -0.50545  -0.48594
 Alpha  occ. eigenvalues --   -0.48239  -0.46706  -0.42553  -0.41688  -0.39914
 Alpha  occ. eigenvalues --   -0.38235  -0.37952  -0.37350  -0.34890  -0.34769
 Alpha  occ. eigenvalues --   -0.33394  -0.30732  -0.24435  -0.21163  -0.19307
 Alpha virt. eigenvalues --    0.00148   0.02466   0.05303   0.10094   0.10785
 Alpha virt. eigenvalues --    0.12603   0.13474   0.14090   0.17064   0.18699
 Alpha virt. eigenvalues --    0.19942   0.20610   0.22120   0.24886   0.28099
 Alpha virt. eigenvalues --    0.29161   0.33472   0.35834   0.40048   0.41241
 Alpha virt. eigenvalues --    0.42831   0.44625   0.58283   0.60504   0.67741
 Alpha virt. eigenvalues --    0.69919   0.71385   0.72041   0.73706   0.74626
 Alpha virt. eigenvalues --    0.77326   0.77911   0.78823   0.79295   0.82138
 Alpha virt. eigenvalues --    0.82613   0.84570   0.85468   0.86468   0.88234
 Alpha virt. eigenvalues --    0.94102   0.94876   0.99082   0.99600   1.00821
 Alpha virt. eigenvalues --    1.06151   1.06978   1.07582   1.08646   1.12251
 Alpha virt. eigenvalues --    1.13421   1.15401   1.19211   1.24509   1.27096
 Alpha virt. eigenvalues --    1.28993   1.35740   1.41279   1.44412   1.46083
 Alpha virt. eigenvalues --    1.48841   1.51208   1.52889   1.53295   1.56993
 Alpha virt. eigenvalues --    1.61127   1.67555   1.69092   1.81600   1.84212
 Alpha virt. eigenvalues --    1.89808   1.95337   2.04339   2.41516   2.54276
 Alpha virt. eigenvalues --    3.31421   3.42610
          Condensed to atoms (all electrons):
               1          2          3          4          5          6
     1  N    6.872733   0.297285  -0.061560   0.003005  -0.000026  -0.000000
     2  C    0.297285   4.952573   0.515887  -0.086589   0.001283   0.000067
     3  C   -0.061560   0.515887   5.306011   0.330379  -0.079815   0.005019
     4  C    0.003005  -0.086589   0.330379   5.752611   0.261568  -0.072516
     5  C   -0.000026   0.001283  -0.079815   0.261568   5.097139   0.316570
     6  O   -0.000000   0.000067   0.005019  -0.072516   0.316570   8.172989
     7  C    0.000000  -0.000039   0.007709  -0.082433   0.275368  -0.070302
     8  C   -0.000000   0.000004  -0.000702  -0.023498  -0.028808   0.003955
     9  C    0.000000   0.000051   0.004113  -0.092749  -0.031570  -0.000243
    10  C    0.000059  -0.002135  -0.103841   0.205653  -0.009565   0.002509
    11  O    0.000012  -0.000902  -0.013036  -0.072063   0.003211  -0.000000
    12  H    0.332354  -0.047645  -0.002712   0.000116  -0.000003  -0.000000
    13  H    0.331211  -0.035955   0.003769  -0.000154  -0.000001  -0.000000
    14  H   -0.043184   0.385241  -0.048453  -0.004233   0.000117  -0.000003
    15  H   -0.004463  -0.047046   0.389826  -0.042210  -0.003100   0.002486
    16  H   -0.000000   0.000001  -0.000334   0.007481  -0.048435   0.270308
    17  H   -0.000000   0.000000  -0.000030   0.003647  -0.052071  -0.005684
    18  H    0.000000   0.000000   0.000000  -0.000173   0.003464  -0.000006
    19  H   -0.000000  -0.000001  -0.000028   0.006311  -0.000601  -0.000000
    20  H   -0.000591   0.008091   0.017413  -0.007972   0.000796   0.000000
               7          8          9         10         11         12
     1  N    0.000000  -0.000000   0.000000   0.000059   0.000012   0.332354
     2  C   -0.000039   0.000004   0.000051  -0.002135  -0.000902  -0.047645
     3  C    0.007709  -0.000702   0.004113  -0.103841  -0.013036  -0.002712
     4  C   -0.082433  -0.023498  -0.092749   0.205653  -0.072063   0.000116
     5  C    0.275368  -0.028808  -0.031570  -0.009565   0.003211  -0.000003
     6  O   -0.070302   0.003955  -0.000243   0.002509  -0.000000  -0.000000
     7  C    5.536642   0.340635  -0.074029  -0.044430  -0.000215  -0.000000
     8  C    0.340635   5.246376   0.414931  -0.057652   0.003141   0.000000
     9  C   -0.074029   0.414931   5.311198   0.390435  -0.063381  -0.000000
    10  C   -0.044430  -0.057652   0.390435   5.128715   0.316322   0.000002
    11  O   -0.000215   0.003141  -0.063381   0.316322   8.200087  -0.000000
    12  H   -0.000000   0.000000  -0.000000   0.000002  -0.000000   0.421854
    13  H   -0.000000   0.000000  -0.000000   0.000006   0.000004  -0.027133
    14  H    0.000006  -0.000004  -0.000077   0.001491   0.001128   0.004048
    15  H    0.000054  -0.000000  -0.000056   0.002118   0.000021   0.003858
    16  H   -0.003024   0.000465   0.000009  -0.000069   0.000000   0.000000
    17  H    0.394301  -0.037926   0.004295  -0.000338  -0.000000  -0.000000
    18  H   -0.037642   0.389832  -0.037793   0.004115  -0.000008   0.000000
    19  H    0.004651  -0.039490   0.378432  -0.041780  -0.001293   0.000000
    20  H    0.000001  -0.000259   0.006684  -0.049565   0.257783   0.000001
              13         14         15         16         17         18
     1  N    0.331211  -0.043184  -0.004463  -0.000000  -0.000000   0.000000
     2  C   -0.035955   0.385241  -0.047046   0.000001   0.000000   0.000000
     3  C    0.003769  -0.048453   0.389826  -0.000334  -0.000030   0.000000
     4  C   -0.000154  -0.004233  -0.042210   0.007481   0.003647  -0.000173
     5  C   -0.000001   0.000117  -0.003100  -0.048435  -0.052071   0.003464
     6  O   -0.000000  -0.000003   0.002486   0.270308  -0.005684  -0.000006
     7  C   -0.000000   0.000006   0.000054  -0.003024   0.394301  -0.037642
     8  C    0.000000  -0.000004  -0.000000   0.000465  -0.037926   0.389832
     9  C   -0.000000  -0.000077  -0.000056   0.000009   0.004295  -0.037793
    10  C    0.000006   0.001491   0.002118  -0.000069  -0.000338   0.004115
    11  O    0.000004   0.001128   0.000021   0.000000  -0.000000  -0.000008
[...]
     20          1           0        0.720883    1.373776    2.281466
 ---------------------------------------------------------------------
                    Distance matrix (angstroms):
                    1          2          3          4          5
     1  N    0.000000
     2  C    1.332021   0.000000
     3  C    2.406305   1.396969   0.000000
     4  C    3.743700   2.507896   1.470120   0.000000
     5  C    4.496292   3.357917   2.465700   1.454142   0.000000
     6  O    4.088553   3.184289   2.744499   2.403936   1.410641
     7  C    5.850593   4.700492   3.694932   2.474709   1.374068
     8  C    6.576330   5.375912   4.227852   2.885151   2.442402
     9  C    6.096822   4.899935   3.728443   2.473867   2.812966
    10  C    4.812418   3.632959   2.512597   1.450178   2.451625
    11  O    4.829404   3.817716   2.905344   2.456135   3.748844
    12  H    1.020042   2.057017   2.654791   4.109568   4.828043
    13  H    1.017661   2.055479   3.328986   4.560053   5.267853
    14  H    2.065060   1.081635   2.141911   2.720740   3.489727
    15  H    2.625666   2.125067   1.098057   2.248142   3.052740
    16  H    4.972729   4.152915   3.685462   3.245840   1.970235
    17  H    6.542877   5.457646   4.558743   3.452063   2.128319
    18  H    7.648461   6.454770   5.297240   3.966582   3.419470
    19  H    6.913409   5.745665   4.591187   3.440550   3.897631
    20  H    4.377329   3.371992   2.812051   2.559232   3.963427
                    6          7          8          9         10
     6  O    0.000000
     7  C    2.457019   0.000000
     8  C    3.760894   1.431160   0.000000
     9  C    4.220260   2.451803   1.428536   0.000000
    10  C    3.708492   2.806453   2.435179   1.370854   0.000000
    11  O    4.854160   4.226219   3.733482   2.415641   1.420667
    12  H    4.447206   6.128561   6.818125   6.332629   5.082362
    13  H    4.733057   6.638789   7.412284   6.944152   5.649479
    14  H    3.298388   4.790017   5.480936   5.045598   3.837364
    15  H    3.299877   4.135658   4.590423   4.081334   2.971924
    16  H    0.993415   2.507231   3.927834   4.678934   4.412490
    17  H    2.700771   1.087785   2.185137   3.441182   3.893845
    18  H    4.643160   2.191856   1.081440   2.192538   3.414748
    19  H    5.304323   3.446448   2.192423   1.085009   2.113343
    20  H    4.899154   4.645628   4.344817   3.123285   1.972881
                   11         12         13         14         15
    11  O    0.000000
    12  H    5.053649   0.000000
    13  H    5.617982   1.738521   0.000000
    14  H    4.070699   2.986979   2.360715   0.000000
    15  H    3.218689   2.431990   3.640434   3.086095   0.000000
    16  H    5.659900   5.268468   5.583101   4.248658   4.119668
    17  H    5.313867   6.816455   7.282975   5.504491   4.966787
    18  H    4.604883   7.866683   8.486998   6.542455   5.602065
    19  H    2.607657   7.121030   7.755656   5.884029   4.867937
    20  H    0.996648   4.751597   5.043683   3.461465   3.337763
                   16         17         18         19         20
    16  H    0.000000
    17  H    2.331059   0.000000
    18  H    4.640915   2.525197   0.000000
    19  H    5.753728   4.355890   2.543858   0.000000
    20  H    5.786242   5.712363   5.272051   3.396209   0.000000
 Stoichiometry    C8H9NO2
 Framework group  C1[X(C8H9NO2)]
 Deg. of freedom    54
 Full point group                 C1      NOp   1
 RotChk:  IX=1 Diff= 7.98D-16
 Largest Abelian subgroup         C1      NOp   1
 Largest concise Abelian subgroup C1      NOp   1
                         Standard orientation:                         
 ---------------------------------------------------------------------
 Center     Atomic      Atomic             Coordinates (Angstroms)
 Number     Number       Type             X           Y           Z
 ---------------------------------------------------------------------
      1          7           0       -3.718940   -0.084644   -0.167609
      2          6           0       -2.494257   -0.108327    0.355718
      3          6           0       -1.331024   -0.267928   -0.401209
      4          6           0        0.007891   -0.114339    0.186132
      5          6           0        0.577370    1.219023    0.074909
      6          8           0       -0.377799    2.256820    0.098077
      7          6           0        1.931284    1.427373   -0.032665
      8          6           0        2.844159    0.327500   -0.104489
      9          6           0        2.308208   -0.995262   -0.043076
     10          6           0        0.956554   -1.202997    0.052415
     11          8           0        0.442193   -2.527196    0.037459
     12          1           0       -3.870378   -0.186215   -1.171221
     13          1           0       -4.543948    0.033375    0.416401
     14          1           0       -2.410004    0.023821    1.425938
     15          1           0       -1.470071   -0.428400   -1.478541
     16          1           0        0.082230    3.120127   -0.074979
     17          1           0        2.313229    2.445897   -0.031466
     18          1           0        3.907373    0.495533   -0.208669
     19          1           0        2.961433   -1.861382   -0.062508
     20          1           0       -0.253544   -2.597495    0.747610
 ---------------------------------------------------------------------
 Rotational constants (GHZ):           1.7110079           0.8416339           0.5785017
 Leave Link  202 at Tue Jan 30 19:41:17 2024, MaxMem=  1073741824 cpu:               0.1 elap:               0.0
 (Enter /share/software/user/restricted/gaussian/g16.B01/l601.exe)
 Copying SCF densities to generalized density rwf, IOpCl= 0 IROHF=0.

 **********************************************************************

            Population analysis using the SCF Density.

 **********************************************************************

 Orbital symmetries:
       Occupied  (A) (A) (A) (A) (A) (A) (A) (A) (A) (A) (A) (A)
                 (A) (A) (A) (A) (A) (A) (A) (A) (A) (A) (A) (A)
                 (A) (A) (A) (A) (A) (A) (A) (A) (A) (A) (A) (A)
                 (A) (A) (A) (A)
       Virtual   (A) (A) (A) (A) (A) (A) (A) (A) (A) (A) (A) (A)
                 (A) (A) (A) (A) (A) (A) (A) (A) (A) (A) (A) (A)
                 (A) (A) (A) (A) (A) (A) (A) (A) (A) (A) (A) (A)
                 (A) (A) (A) (A) (A) (A) (A) (A) (A) (A) (A) (A)
                 (A) (A) (A) (A) (A) (A) (A) (A) (A) (A) (A) (A)
                 (A) (A) (A) (A) (A) (A) (A) (A) (A) (A) (A) (A)
                 (A) (A) (A) (A) (A)
 The electronic state is 1-A.
 Alpha  occ. eigenvalues --  -19.06092 -19.04971 -14.25414 -10.19125 -10.18601
 Alpha  occ. eigenvalues --  -10.15293 -10.14328 -10.12921 -10.12686 -10.12293
 Alpha  occ. eigenvalues --  -10.09361  -1.04144  -1.02918  -0.91443  -0.84604
 Alpha  occ. eigenvalues --   -0.76593  -0.74120  -0.69623  -0.62616  -0.60475
 Alpha  occ. eigenvalues --   -0.57743  -0.54557  -0.52704  -0.48851  -0.48275
 Alpha  occ. eigenvalues --   -0.47394  -0.46474  -0.42350  -0.40868  -0.38715
 Alpha  occ. eigenvalues --   -0.37770  -0.37029  -0.36203  -0.34503  -0.33566
 Alpha  occ. eigenvalues --   -0.32247  -0.29596  -0.22577  -0.22100  -0.17456
 Alpha virt. eigenvalues --   -0.02296   0.02305   0.06071   0.09678   0.10466
 Alpha virt. eigenvalues --    0.11742   0.12632   0.13899   0.14581   0.18017
 Alpha virt. eigenvalues --    0.20885   0.21003   0.22685   0.23334   0.24752
 Alpha virt. eigenvalues --    0.28981   0.33896   0.35571   0.37644   0.39112
 Alpha virt. eigenvalues --    0.40419   0.42690   0.55595   0.57589   0.68187
 Alpha virt. eigenvalues --    0.69616   0.71586   0.72560   0.73588   0.74113
 Alpha virt. eigenvalues --    0.76460   0.77247   0.78380   0.79085   0.80644
 Alpha virt. eigenvalues --    0.81810   0.83252   0.84733   0.85666   0.89229
 Alpha virt. eigenvalues --    0.92142   0.93275   0.96851   0.98391   0.99697
 Alpha virt. eigenvalues --    1.02357   1.06000   1.06339   1.10128   1.10628
 Alpha virt. eigenvalues --    1.11773   1.15181   1.20194   1.24294   1.25805
 Alpha virt. eigenvalues --    1.29824   1.33231   1.39846   1.42738   1.44427
 Alpha virt. eigenvalues --    1.47345   1.49468   1.50645   1.54955   1.62807
 Alpha virt. eigenvalues --    1.66250   1.67270   1.72293   1.81548   1.83624
 Alpha virt. eigenvalues --    1.89893   1.97752   2.03971   2.42412   2.51912
 Alpha virt. eigenvalues --    3.23280   3.27410
          Condensed to atoms (all electrons):
               1          2          3          4          5          6
     1  N    6.919270   0.276046  -0.061540   0.001856   0.000085  -0.000006
     2  C    0.276046   4.904972   0.512548  -0.073107  -0.001640   0.001197
     3  C   -0.061540   0.512548   5.297396   0.354020  -0.112384   0.000229
     4  C    0.001856  -0.073107   0.354020   5.735161   0.270939  -0.061541
     5  C    0.000085  -0.001640  -0.112384   0.270939   5.166082   0.308224
     6  O   -0.000006   0.001197   0.000229  -0.061541   0.308224   8.148372
     7  C    0.000000  -0.000016   0.006940  -0.087325   0.268969  -0.060827
     8  C   -0.000000   0.000003  -0.000522  -0.015938  -0.035089   0.002434
     9  C    0.000000  -0.000087   0.005833  -0.096525  -0.021098  -0.000135
    10  C   -0.000020   0.001639  -0.089679   0.247462  -0.049675   0.001758
    11  O    0.000000  -0.000103   0.000519  -0.069123   0.002636  -0.000000
    12  H    0.336748  -0.038924  -0.002615   0.000053  -0.000001   0.000001
    13  H    0.336901  -0.028158   0.003191  -0.000097  -0.000001  -0.000001
    14  H   -0.042647   0.379040  -0.042105  -0.000579   0.000497   0.000009
    15  H   -0.003886  -0.056973   0.396833  -0.046243  -0.001376   0.000283
    16  H   -0.000001  -0.000004   0.000230   0.006223  -0.043584   0.254103
    17  H    0.000000  -0.000001  -0.000091   0.003363  -0.054470  -0.004101
    18  H   -0.000000   0.000000  -0.000000  -0.000088   0.002935  -0.000004
    19  H    0.000000   0.000000  -0.000070   0.005560  -0.000494   0.000000
    20  H   -0.000034   0.001499   0.006874  -0.002085   0.000604   0.000000
               7          8          9         10         11         12
     1  N    0.000000  -0.000000   0.000000  -0.000020   0.000000   0.336748
     2  C   -0.000016   0.000003  -0.000087   0.001639  -0.000103  -0.038924
     3  C    0.006940  -0.000522   0.005833  -0.089679   0.000519  -0.002615
     4  C   -0.087325  -0.015938  -0.096525   0.247462  -0.069123   0.000053
     5  C    0.268969  -0.035089  -0.021098  -0.049675   0.002636  -0.000001
     6  O   -0.060827   0.002434  -0.000135   0.001758  -0.000000   0.000001
     7  C    5.493693   0.373210  -0.079338  -0.022056  -0.000150   0.000000
     8  C    0.373210   5.210826   0.408333  -0.058463   0.002282   0.000000
     9  C   -0.079338   0.408333   5.360032   0.366971  -0.059006   0.000000
    10  C   -0.022056  -0.058463   0.366971   5.103017   0.315288  -0.000001
    11  O   -0.000150   0.002282  -0.059006   0.315288   8.157579   0.000000
    12  H    0.000000   0.000000   0.000000  -0.000001   0.000000   0.395682
    13  H   -0.000000   0.000000  -0.000000   0.000001  -0.000000  -0.025517
    14  H    0.000004  -0.000001   0.000001   0.000238  -0.000000   0.003350
    15  H    0.000015   0.000047   0.000102  -0.003225   0.000460   0.004882
    16  H   -0.002793   0.000276   0.000018  -0.000122   0.000000   0.000000
    17  H    0.388979  -0.033271   0.003499  -0.000147   0.000000  -0.000000
    18  H   -0.035373   0.388988  -0.035196   0.003344  -0.000005  -0.000000
    19  H    0.003885  -0.034370   0.373237  -0.044260  -0.000141  -0.000000
    20  H   -0.000004  -0.000172   0.003675  -0.050556   0.257397   0.000000
              13         14         15         16         17         18
     1  N    0.336901  -0.042647  -0.003886  -0.000001   0.000000  -0.000000
     2  C   -0.028158   0.379040  -0.056973  -0.000004  -0.000001   0.000000
     3  C    0.003191  -0.042105   0.396833   0.000230  -0.000091  -0.000000
     4  C   -0.000097  -0.000579  -0.046243   0.006223   0.003363  -0.000088
     5  C   -0.000001   0.000497  -0.001376  -0.043584  -0.054470   0.002935
     6  O   -0.000001   0.000009   0.000283   0.254103  -0.004101  -0.000004
     7  C   -0.000000   0.000004   0.000015  -0.002793   0.388979  -0.035373
     8  C    0.000000  -0.000001   0.000047   0.000276  -0.033271   0.388988
     9  C   -0.000000   0.000001   0.000102   0.000018   0.003499  -0.035196
    10  C    0.000001   0.000238  -0.003225  -0.000122  -0.000147   0.003344
    11  O   -0.000000  -0.000000   0.000460   0.000000   0.000000  -0.000005
    12  H   -0.025517   0.003350   0.004882   0.000000  -0.000000  -0.000000
    13  H    0.388332  -0.004133  -0.000073   0.000000   0.000000   0.000000
    14  H   -0.004133   0.490398   0.003291   0.000004   0.000000  -0.000000
    15  H   -0.000073   0.003291   0.539024   0.000018   0.000000  -0.000000
    16  H    0.000000   0.000004   0.000018   0.410712   0.003453  -0.000001
    17  H    0.000000   0.000000   0.000000   0.003453   0.494132  -0.002927
    18  H    0.000000  -0.000000  -0.000000  -0.000001  -0.002927   0.469372
    19  H    0.000000   0.000000   0.000000  -0.000000  -0.000031  -0.003012
    20  H   -0.000000  -0.000042  -0.000198  -0.000000  -0.000000   0.000001
              19         20
     1  N    0.000000  -0.000034
     2  C    0.000000   0.001499
     3  C   -0.000070   0.006874
     4  C    0.005560  -0.002085
     5  C   -0.000494   0.000604
     6  O    0.000000   0.000000
     7  C    0.003885  -0.000004
     8  C   -0.034370  -0.000172
     9  C    0.373237   0.003675
    10  C   -0.044260  -0.050556
    11  O   -0.000141   0.257397
    12  H   -0.000000   0.000000
    13  H    0.000000  -0.000000
    14  H    0.000000  -0.000042
    15  H    0.000000  -0.000198
    16  H   -0.000000  -0.000000
    17  H   -0.000031  -0.000000
    18  H   -0.003012   0.000001
    19  H    0.499944  -0.000131
    20  H   -0.000131   0.408378
 Mulliken charges:
               1
     1  N   -0.762772
     2  C    0.122069
     3  C   -0.275607
     4  C   -0.171985
     5  C    0.298839
     6  O   -0.589996
     7  C   -0.247814
     8  C   -0.208574
     9  C   -0.230317
    10  C    0.278485
    11  O   -0.607633
    12  H    0.326340
    13  H    0.329555
    14  H    0.212673
    15  H    0.167019
    16  H    0.371467
    17  H    0.201611
    18  H    0.211964
    19  H    0.199883
    20  H    0.374793
 Sum of Mulliken charges =  -0.00000
 Mulliken charges with hydrogens summed into heavy atoms:
               1
     1  N   -0.106877
     2  C    0.334742
     3  C   -0.108588
     4  C   -0.171985
     5  C    0.298839
     6  O   -0.218529
     7  C   -0.046204
     8  C    0.003390
     9  C   -0.030434
    10  C    0.278485
    11  O   -0.232840
 Electronic spatial extent (au):  <R**2>=           1888.4483
 Charge=              0.0000 electrons
 Dipole moment (field-independent basis, Debye):
    X=             -2.9390    Y=              2.3813    Z=              0.7598  Tot=              3.8582
 Quadrupole moment (field-independent basis, Debye-Ang):
   XX=            -41.0863   YY=            -58.9835   ZZ=            -62.8101
   XY=              6.4687   XZ=             -0.5091   YZ=             -4.0309
 Traceless Quadrupole moment (field-independent basis, Debye-Ang):
   XX=             13.2070   YY=             -4.6902   ZZ=             -8.5169
   XY=              6.4687   XZ=             -0.5091   YZ=             -4.0309
 Octapole moment (field-independent basis, Debye-Ang**2):
  XXX=            -86.5992  YYY=             45.7903  ZZZ=             -0.8200  XYY=              5.9029
  XXY=              0.7559  XXZ=             -3.3177  XZZ=            -23.7871  YZZ=             -4.6392
  YYZ=              7.5298  XYZ=             -0.7138
 Hexadecapole moment (field-independent basis, Debye-Ang**3):
 XXXX=          -1045.2051 YYYY=           -591.8129 ZZZZ=            -90.8802 XXXY=             -5.2142
 XXXZ=             -7.4700 YYYX=             42.2988 YYYZ=            -35.9921 ZZZX=              9.1083
 ZZZY=             -2.2427 XXYY=           -388.0627 XXZZ=           -257.6185 YYZZ=           -131.8058
 XXYZ=              6.1311 YYXZ=             -3.0506 ZZXY=             -0.5377
 N-N= 5.758545311927D+02 E-N=-2.347817063422D+03  KE= 5.079576381381D+02
 No NMR shielding tensors so no spin-rotation constants.
 Leave Link  601 at Tue Jan 30 19:41:18 2024, MaxMem=  1073741824 cpu:               1.0 elap:               0.2
 (Enter /share/software/user/restricted/gaussian/g16.B01/l9999.exe)
 Electronic transition elements 
                 1             2             3             4             5 
      1  -0.512459D+03 -0.512413D+03 -0.512405D+03 -0.512391D+03 -0.512355D+03
      2   0.744318D+00  0.565449D+00  0.140158D+00 -0.135288D+01  0.666804D+00
      3   0.525907D-01  0.271575D+00 -0.605647D+00  0.921779D-01 -0.109370D+01
      4  -0.175780D+00  0.181296D+00 -0.691735D+00  0.260731D+00 -0.114490D+01
      5  -0.752960D-01 -0.779799D-01 -0.167467D-01  0.228414D+00 -0.125143D+00
      6  -0.643836D-02 -0.345784D-01  0.919816D-01  0.364759D-02  0.202513D+00
      7   0.208557D-01 -0.274908D-01  0.102155D+00 -0.590457D-01  0.219439D+00
      8  -0.155657D+00  0.420214D-02 -0.144454D-01 -0.123456D+00 -0.793176D-01
      9  -0.124010D+00 -0.321812D+00  0.534355D+00 -0.591771D-01  0.526003D+00
     10   0.123996D+00  0.320193D+00 -0.546148D+00  0.793382D-01 -0.448260D+00
     11  -0.115757D+00 -0.208847D+00 -0.321793D+00 -0.278676D+00 -0.517360D+00
     12   0.236380D-01  0.669990D-01 -0.555381D-01 -0.214543D-01 -0.924859D-01
     13   0.181350D-01 -0.504833D-01  0.133299D+00 -0.138094D+00  0.193314D+00
     14   0.140079D-01  0.125447D+00 -0.182344D+00  0.773600D-02 -0.305173D+00
     15   0.667900D-01  0.159453D+00 -0.104580D+00  0.343729D-01 -0.222144D+00
     16   0.485366D-01  0.281703D-01  0.273106D-01 -0.210736D+00 -0.508418D-02
 1\1\GINC-SH02-14N05\FTS\RB3LYP TD-FC\3-21G*\C8H9N1O2\JENNXU23\30-Jan-2
 024\0\\#p b3lyp/3-21G* opt=(calcfc,ts,noeigen,maxcycle=1000) scrf=(sol
 vent=water) td=(singlets,nstates=5)\\3_top\\0,1\N,3.4832209749,0.28380
 73741,-0.9345048383\C,2.4076296436,-0.0913625114,-0.2441201697\C,1.158
 0339744,0.5218351909,-0.3625326717\C,-0.0437628478,-0.027944529,0.2814
 239856\C,-0.8311673403,-0.9228316361,-0.551463357\O,-0.0704593826,-1.6
 627656517,-1.4808340549\C,-2.1948539737,-1.0296923798,-0.4210667047\C,
 -2.9143845459,-0.2103360034,0.5058365848\C,-2.1710269776,0.7107379898,
 1.3056857572\C,-0.8120329561,0.8254952054,1.1670973732\O,-0.1045416005
 ,1.8001377169,1.9206380025\H,3.4458307967,1.0574470347,-1.598259154\H,
 4.3781091796,-0.1873253217,-0.8211775898\H,2.5183172564,-0.931676216,0
 .4278578367\H,1.1034537275,1.3887408844,-1.0342658479\H,-0.6886862851,
 -2.1741382572,-2.0666391548\H,-2.7278601103,-1.7718727992,-1.011277215
 2\H,-3.9899142027,-0.2837436783,0.5916290817\H,-2.6667881266,1.3317120
 535,2.0445063174\H,0.7208827961,1.3737755342,2.281465819\\Version=ES64
 L-G16RevB.01\State=1-A\HF=-512.5788368\RMSD=2.675e-09\RMSF=7.445e-06\D
 ipole=5.7028147,-0.2235622,-1.9560888\PG=C01 [X(C8H9N1O2)]\\@


      TO SUSPECT YOUR OWN MORTALITY IS TO KNOW THE BEGINNING OF TERROR.
      TO LEARN IRREFUTABLY THAT YOU ARE MORTAL IS TO KNOW THE END
      OF TERROR.

                                                  -- JESSICA
                                                     CHILDREN OF DUNE
                                                     BY FRANK HERBERT
 Job cpu time:       0 days  4 hours 52 minutes 54.4 seconds.
 Elapsed time:       0 days  0 hours 37 minutes 32.0 seconds.
 File lengths (MBytes):  RWF=    285 Int=      0 D2E=      0 Chk=     11 Scr=      1
 Normal termination of Gaussian 16 at Tue Jan 30 19:41:18 2024.
