 Entering Gaussian System, Link 0=g16
 Initial command:
 /share/software/user/restricted/gaussian/g16.B01/l1.exe "/scratch/users/jennxu23/SyntheMol_private/scripts/gaussian/Gau-5227.inp" -scrdir="/scratch/users/jennxu23/SyntheMol_private/scripts/gaussian/"
 Entering Link 1 = /share/software/user/restricted/gaussian/g16.B01/l1.exe PID=      5228.
  
 Copyright (c) 1988-2017, Gaussian, Inc.  All Rights Reserved.
  
 This is part of the Gaussian(R) 16 program.  It is based on
 the Gaussian(R) 09 system (copyright 2009, Gaussian, Inc.),
 the Gaussian(R) 03 system (copyright 2003, Gaussian, Inc.),
 the Gaussian(R) 98 system (copyright 1998, Gaussian, Inc.),
 the Gaussian(R) 94 system (copyright 1995, Gaussian, Inc.),
 the Gaussian 92(TM) system (copyright 1992, Gaussian, Inc.),
 the Gaussian 90(TM) system (copyright 1990, Gaussian, Inc.),
 the Gaussian 88(TM) system (copyright 1988, Gaussian, Inc.),
 the Gaussian 86(TM) system (copyright 1986, Carnegie Mellon
 University), and the Gaussian 82(TM) system (copyright 1983,
 Carnegie Mellon University). Gaussian is a federally registered
 trademark of Gaussian, Inc.
  
 This software contains proprietary and confidential information,
 including trade secrets, belonging to Gaussian, Inc.
  
 This software is provided under written license and may be
 used, copied, transmitted, or stored only in accord with that
 written license.
  
 The following legend is applicable only to US Government
 contracts under FAR:
  
                    RESTRICTED RIGHTS LEGEND
  
 Use, reproduction and disclosure by the US Government is
 subject to restrictions as set forth in subparagraphs (a)
 and (c) of the Commercial Computer Software - Restricted
 Rights clause in FAR 52.227-19.
  
 Gaussian, Inc.
 340 Quinnipiac St., Bldg. 40, Wallingford CT 06492
  
  
 ---------------------------------------------------------------
 Warning -- This program may not be used in any manner that
 competes with the business of Gaussian, Inc. or will provide
 assistance to any competitor of Gaussian, Inc.  The licensee
 of this program is prohibited from giving any competitor of
 Gaussian, Inc. access to this program.  By using this program,
 the user acknowledges that Gaussian, Inc. is engaged in the
 business of creating and licensing software in the field of
 computational chemistry and represents and warrants to the
 licensee that it is not a competitor of Gaussian, Inc. and that
 it will not use this program in any manner prohibited above.
 ---------------------------------------------------------------
  

 Cite this work as:
 Gaussian 16, Revision B.01,
 M. J. Frisch, G. W. Trucks, H. B. Schlegel, G. E. Scuseria, 
 M. A. Robb, J. R. Cheeseman, G. Scalmani, V. Barone, 
 G. A. Petersson, H. Nakatsuji, X. Li, M. Caricato, A. V. Marenich, 
 J. Bloino, B. G. Janesko, R. Gomperts, B. Mennucci, H. P. Hratchian, 
 J. V. Ortiz, A. F. Izmaylov, J. L. Sonnenberg, D. Williams-Young, 
 F. Ding, F. Lipparini, F. Egidi, J. Goings, B. Peng, A. Petrone, 
 T. Henderson, D. Ranasinghe, V. G. Zakrzewski, J. Gao, N. Rega, 
 G. Zheng, W. Liang, M. Hada, M. Ehara, K. Toyota, R. Fukuda, 
 J. Hasegawa, M. Ishida, T. Nakajima, Y. Honda, O. Kitao, H. Nakai, 
 T. Vreven, K. Throssell, J. A. Montgomery, Jr., J. E. Peralta, 
 F. Ogliaro, M. J. Bearpark, J. J. Heyd, E. N. Brothers, K. N. Kudin, 
 V. N. Staroverov, T. A. Keith, R. Kobayashi, J. Normand, 
 K. Raghavachari, A. P. Rendell, J. C. Burant, S. S. Iyengar, 
 J. Tomasi, M. Cossi, J. M. Millam, M. Klene, C. Adamo, R. Cammi, 
 J. W. Ochterski, R. L. Martin, K. Morokuma, O. Farkas, 
 J. B. Foresman, and D. J. Fox, Gaussian, Inc., Wallingford CT, 2016.
 
 ******************************************
 Gaussian 16:  ES64L-G16RevB.01 20-Dec-2017
                30-Jan-2024 
 ******************************************
 %Mem=8GB
 %CPU=8,10,12-15,17,19
 SetSPE:  set environment variable "MP_BIND" = "yes"
 SetSPE:  set environment variable "MP_BLIST" = "8,10,12,13,14,15,17,19"
 Will use up to    8 processors via shared memory.
 %GPUCPU=0=8
 Will use    1 GPUs:
 Thread  CPU   GPU
      0    8     0
      1   10    -1
      2   12    -1
      3   13    -1
      4   14    -1
      5   15    -1
      6   17    -1
      7   19    -1
 SetGPE:  set environment variable "MP_BIND" = "yes"
 SetGPE:  set environment variable "MP_BLIST" = "8,10,12,13,14,15,17,19"
 Properties for Device   0
 Minimum vector length:                              32
 Maximum vector length:                            1024
 Number of SMPs:                                     56
 Maximum number of threads per SMP:                2048
 Number of ASync Engines:                             2
 Memory:                                           1385447424
   1246902681 words of memory will be used on each GPU.
 ----------------------------------------------------------------------
 #p b3lyp/3-21G* opt=(calcfc,ts,noeigen,maxcycle=1000) scrf=(solvent=wa
 ter) td=(singlets,nstates=5)
 ----------------------------------------------------------------------
 1/5=1,6=1000,10=4,11=1,18=20,26=3,38=1/1,3;
 2/9=110,12=2,17=6,18=5,40=1/2;
 3/5=5,7=1,11=9,25=1,30=1,70=2201,71=2,72=1,74=-5,140=1/1,2,3,8;
 4//1;
 5/5=2,38=5,53=1/2;
 8/6=1,10=1,108=5/1;
 9/15=3,41=5,42=1,48=1,70=2/14;
 10/5=2004,20=4/2;
 11/6=1,8=1,12=-1,16=1,42=3/1,2,10;
 10/6=3,21=1/2,14;
 6/7=2,8=2,9=2,10=2/1;
 7/10=1,12=6,13=8,18=20,25=1,44=2/1,2,3,16;
 1/5=1,6=1000,10=4,11=1,18=20,26=3/3(2);
 2/9=110/2;
 99//99;
 2/9=110/2;
 3/5=5,7=1,11=9,25=1,30=1,70=2205,71=1,72=1,74=-5/1,2,3,8;
 4/5=5,16=3,69=1/1;
 5/5=2,38=5,53=1/2;
 8/6=1,10=1,108=5/1;
 9/15=2,41=5,42=1,48=1,49=4,70=2/14;
 10/5=4/2;
 7/12=6,13=5/1,2,3,16;
 1/5=1,6=1000,11=1,18=20,26=3/3(-8);
 2/9=110/2;
 6/7=2,8=2,9=2,10=2/1;
 99/9=10/99;
 Leave Link    1 at Tue Jan 30 19:41:22 2024, MaxMem=  1073741824 cpu:               4.6 elap:               0.6
 (Enter /share/software/user/restricted/gaussian/g16.B01/l101.exe)
 -----
 4_top
 -----
 Symbolic Z-matrix:
 Charge =  0 Multiplicity = 1
 N                    -2.06356  -1.57598   0.06932 
 C                    -2.05416  -0.23699  -0.07121 
 N                    -3.16743   0.48075  -0.19419 
 N                    -2.67935   1.72525  -0.25887 
 N                    -1.35332   1.89873  -0.16451 
 C                    -0.91377   0.62957  -0.07409 
 C                     0.50441   0.31398   0.01203 
 C                     1.04809  -0.83142  -0.57665 
 C                     2.41332  -1.09013  -0.46046 
 C                     3.19687  -0.18988   0.24256 
 N                     2.71412   0.93022   0.81943 
 C                     1.38317   1.16039   0.68188 
 H                    -2.97639  -1.97129   0.27573 
 H                    -1.33047  -2.00957   0.62044 
 H                    -3.30158   2.52236  -0.36867 
 H                     0.42538  -1.51684  -1.14636 
 H                     2.856    -1.96941  -0.91524 
 H                     4.26536  -0.34766   0.35923 
 H                     1.0333    2.07793   1.14963 
 
 ITRead=  0  0  0  0  0  0  0  0  0  0  0  0  0  0  0  0  0  0  0
 MicOpt= -1 -1 -1 -1 -1 -1 -1 -1 -1 -1 -1 -1 -1 -1 -1 -1 -1 -1 -1
 NAtoms=     19 NQM=       19 NQMF=       0 NMMI=      0 NMMIF=      0
                NMic=       0 NMicF=      0.
                    Isotopes and Nuclear Properties:
 (Nuclear quadrupole moments (NQMom) in fm**2, nuclear magnetic moments (NMagM)
  in nuclear magnetons)

  Atom         1           2           3           4           5           6           7           8           9          10
 IAtWgt=          14          12          14          14          14          12          12          12          12          12
 AtmWgt=  14.0030740  12.0000000  14.0030740  14.0030740  14.0030740  12.0000000  12.0000000  12.0000000  12.0000000  12.0000000
 NucSpn=           2           0           2           2           2           0           0           0           0           0
 AtZEff=  -0.0000000  -0.0000000  -0.0000000  -0.0000000  -0.0000000  -0.0000000  -0.0000000  -0.0000000  -0.0000000  -0.0000000
 NQMom=    2.0440000   0.0000000   2.0440000   2.0440000   2.0440000   0.0000000   0.0000000   0.0000000   0.0000000   0.0000000
 NMagM=    0.4037610   0.0000000   0.4037610   0.4037610   0.4037610   0.0000000   0.0000000   0.0000000   0.0000000   0.0000000
 AtZNuc=   7.0000000   6.0000000   7.0000000   7.0000000   7.0000000   6.0000000   6.0000000   6.0000000   6.0000000   6.0000000

  Atom        11          12          13          14          15          16          17          18          19
 IAtWgt=          14          12           1           1           1           1           1           1           1
 AtmWgt=  14.0030740  12.0000000   1.0078250   1.0078250   1.0078250   1.0078250   1.0078250   1.0078250   1.0078250
 NucSpn=           2           0           1           1           1           1           1           1           1
 AtZEff=  -0.0000000  -0.0000000  -0.0000000  -0.0000000  -0.0000000  -0.0000000  -0.0000000  -0.0000000  -0.0000000
 NQMom=    2.0440000   0.0000000   0.0000000   0.0000000   0.0000000   0.0000000   0.0000000   0.0000000   0.0000000
 NMagM=    0.4037610   0.0000000   2.7928460   2.7928460   2.7928460   2.7928460   2.7928460   2.7928460   2.7928460
 AtZNuc=   7.0000000   6.0000000   1.0000000   1.0000000   1.0000000   1.0000000   1.0000000   1.0000000   1.0000000
 Leave Link  101 at Tue Jan 30 19:41:22 2024, MaxMem=  1073741824 cpu:               3.3 elap:               0.5
 (Enter /share/software/user/restricted/gaussian/g16.B01/l103.exe)

 GradGradGradGradGradGradGradGradGradGradGradGradGradGradGradGradGradGrad
 Berny optimization.
 Initialization pass.
                           ----------------------------
                           !    Initial Parameters    !
                           ! (Angstroms and Degrees)  !
 --------------------------                            --------------------------
 ! Name  Definition              Value          Derivative Info.                !
 --------------------------------------------------------------------------------
 ! R1    R(1,2)                  1.3464         calculate D2E/DX2 analytically  !
 ! R2    R(1,13)                 1.0159         calculate D2E/DX2 analytically  !
 ! R3    R(1,14)                 1.0145         calculate D2E/DX2 analytically  !
 ! R4    R(2,3)                  1.3303         calculate D2E/DX2 analytically  !
 ! R5    R(2,6)                  1.4323         calculate D2E/DX2 analytically  !
 ! R6    R(3,4)                  1.3384         calculate D2E/DX2 analytically  !
 ! R7    R(4,5)                  1.3407         calculate D2E/DX2 analytically  !
 ! R8    R(4,15)                 1.0172         calculate D2E/DX2 analytically  !
 ! R9    R(5,6)                  1.3462         calculate D2E/DX2 analytically  !
 ! R10   R(6,7)                  1.4554         calculate D2E/DX2 analytically  !
 ! R11   R(7,8)                  1.3979         calculate D2E/DX2 analytically  !
 ! R12   R(7,12)                 1.3919         calculate D2E/DX2 analytically  !
 ! R13   R(8,9)                  1.3944         calculate D2E/DX2 analytically  !
 ! R14   R(8,16)                 1.0873         calculate D2E/DX2 analytically  !
 ! R15   R(9,10)                 1.3851         calculate D2E/DX2 analytically  !
 ! R16   R(9,17)                 1.0844         calculate D2E/DX2 analytically  !
 ! R17   R(10,11)                1.3492         calculate D2E/DX2 analytically  !
 ! R18   R(10,18)                1.0864         calculate D2E/DX2 analytically  !
 ! R19   R(11,12)                1.3577         calculate D2E/DX2 analytically  !
 ! R20   R(12,19)                1.0877         calculate D2E/DX2 analytically  !
 ! A1    A(2,1,13)             114.4843         calculate D2E/DX2 analytically  !
 ! A2    A(2,1,14)             118.471          calculate D2E/DX2 analytically  !
 ! A3    A(13,1,14)            111.8769         calculate D2E/DX2 analytically  !
 ! A4    A(1,2,3)              122.7101         calculate D2E/DX2 analytically  !
 ! A5    A(1,2,6)              127.4063         calculate D2E/DX2 analytically  !
 ! A6    A(3,2,6)              109.8591         calculate D2E/DX2 analytically  !
 ! A7    A(2,3,4)              101.594          calculate D2E/DX2 analytically  !
 ! A8    A(3,4,5)              118.531          calculate D2E/DX2 analytically  !
 ! A9    A(3,4,15)             120.7191         calculate D2E/DX2 analytically  !
 ! A10   A(5,4,15)             120.7477         calculate D2E/DX2 analytically  !
 ! A11   A(4,5,6)              101.8701         calculate D2E/DX2 analytically  !
 ! A12   A(2,6,5)              108.0931         calculate D2E/DX2 analytically  !
 ! A13   A(2,6,7)              130.1303         calculate D2E/DX2 analytically  !
 ! A14   A(5,6,7)              121.7746         calculate D2E/DX2 analytically  !
 ! A15   A(6,7,8)              122.1229         calculate D2E/DX2 analytically  !
 ! A16   A(6,7,12)             120.7847         calculate D2E/DX2 analytically  !
 ! A17   A(8,7,12)             117.0894         calculate D2E/DX2 analytically  !
 ! A18   A(7,8,9)              119.8505         calculate D2E/DX2 analytically  !
 ! A19   A(7,8,16)             120.9605         calculate D2E/DX2 analytically  !
 ! A20   A(9,8,16)             119.1742         calculate D2E/DX2 analytically  !
 ! A21   A(8,9,10)             118.396          calculate D2E/DX2 analytically  !
 ! A22   A(8,9,17)             121.0101         calculate D2E/DX2 analytically  !
 ! A23   A(10,9,17)            120.592          calculate D2E/DX2 analytically  !
 ! A24   A(9,10,11)            123.6529         calculate D2E/DX2 analytically  !
 ! A25   A(9,10,18)            121.0973         calculate D2E/DX2 analytically  !
 ! A26   A(11,10,18)           115.2491         calculate D2E/DX2 analytically  !
 ! A27   A(10,11,12)           116.6258         calculate D2E/DX2 analytically  !
 ! A28   A(7,12,11)            124.3735         calculate D2E/DX2 analytically  !
 ! A29   A(7,12,19)            121.1212         calculate D2E/DX2 analytically  !
 ! A30   A(11,12,19)           114.5045         calculate D2E/DX2 analytically  !
 ! D1    D(13,1,2,3)           -12.6451         calculate D2E/DX2 analytically  !
 ! D2    D(13,1,2,6)           165.3663         calculate D2E/DX2 analytically  !
 ! D3    D(14,1,2,3)          -148.1021         calculate D2E/DX2 analytically  !
 ! D4    D(14,1,2,6)            29.9094         calculate D2E/DX2 analytically  !
 ! D5    D(1,2,3,4)            178.0238         calculate D2E/DX2 analytically  !
 ! D6    D(6,2,3,4)             -0.2968         calculate D2E/DX2 analytically  !
 ! D7    D(1,2,6,5)           -176.5529         calculate D2E/DX2 analytically  !
 ! D8    D(1,2,6,7)              2.9256         calculate D2E/DX2 analytically  !
 ! D9    D(3,2,6,5)              1.6682         calculate D2E/DX2 analytically  !
 ! D10   D(3,2,6,7)           -178.8534         calculate D2E/DX2 analytically  !
 ! D11   D(2,3,4,5)             -1.2641         calculate D2E/DX2 analytically  !
 ! D12   D(2,3,4,15)           179.2861         calculate D2E/DX2 analytically  !
 ! D13   D(3,4,5,6)              2.2714         calculate D2E/DX2 analytically  !
 ! D14   D(15,4,5,6)          -178.2789         calculate D2E/DX2 analytically  !
 ! D15   D(4,5,6,2)             -2.1825         calculate D2E/DX2 analytically  !
 ! D16   D(4,5,6,7)            178.2866         calculate D2E/DX2 analytically  !
 ! D17   D(2,6,7,8)             35.3821         calculate D2E/DX2 analytically  !
 ! D18   D(2,6,7,12)          -145.2593         calculate D2E/DX2 analytically  !
 ! D19   D(5,6,7,8)           -145.2011         calculate D2E/DX2 analytically  !
 ! D20   D(5,6,7,12)            34.1576         calculate D2E/DX2 analytically  !
 ! D21   D(6,7,8,9)           -179.7635         calculate D2E/DX2 analytically  !
 ! D22   D(6,7,8,16)             1.6492         calculate D2E/DX2 analytically  !
 ! D23   D(12,7,8,9)             0.8554         calculate D2E/DX2 analytically  !
 ! D24   D(12,7,8,16)         -177.732          calculate D2E/DX2 analytically  !
 ! D25   D(6,7,12,11)          179.2324         calculate D2E/DX2 analytically  !
 ! D26   D(6,7,12,19)           -0.4076         calculate D2E/DX2 analytically  !
 ! D27   D(8,7,12,11)           -1.3777         calculate D2E/DX2 analytically  !
 ! D28   D(8,7,12,19)          178.9823         calculate D2E/DX2 analytically  !
 ! D29   D(7,8,9,10)            -0.0989         calculate D2E/DX2 analytically  !
 ! D30   D(7,8,9,17)          -179.5877         calculate D2E/DX2 analytically  !
 ! D31   D(16,8,9,10)          178.5138         calculate D2E/DX2 analytically  !
 ! D32   D(16,8,9,17)           -0.975          calculate D2E/DX2 analytically  !
 ! D33   D(8,9,10,11)           -0.2655         calculate D2E/DX2 analytically  !
 ! D34   D(8,9,10,18)         -179.9274         calculate D2E/DX2 analytically  !
 ! D35   D(17,9,10,11)         179.2255         calculate D2E/DX2 analytically  !
 ! D36   D(17,9,10,18)          -0.4364         calculate D2E/DX2 analytically  !
 ! D37   D(9,10,11,12)          -0.1759         calculate D2E/DX2 analytically  !
 ! D38   D(18,10,11,12)        179.504          calculate D2E/DX2 analytically  !
 ! D39   D(10,11,12,7)           1.0348         calculate D2E/DX2 analytically  !
 ! D40   D(10,11,12,19)       -179.3039         calculate D2E/DX2 analytically  !
 --------------------------------------------------------------------------------
 Trust Radius=3.00D-01 FncErr=1.00D-07 GrdErr=1.00D-06 EigMax=2.50D+02 EigMin=1.00D-04
 Number of steps in this run=    114 maximum allowed number of steps=    114.
 Search for a saddle point of order  1.
 GradGradGradGradGradGradGradGradGradGradGradGradGradGradGradGradGradGrad

 Leave Link  103 at Tue Jan 30 19:41:23 2024, MaxMem=  1073741824 cpu:               0.1 elap:               0.1
 (Enter /share/software/user/restricted/gaussian/g16.B01/l202.exe)
                          Input orientation:                          
 ---------------------------------------------------------------------
 Center     Atomic      Atomic             Coordinates (Angstroms)
 Number     Number       Type             X           Y           Z
 ---------------------------------------------------------------------
      1          7           0       -2.063555   -1.575983    0.069318
      2          6           0       -2.054161   -0.236986   -0.071209
      3          7           0       -3.167431    0.480751   -0.194187
      4          7           0       -2.679349    1.725254   -0.258870
      5          7           0       -1.353324    1.898735   -0.164506
      6          6           0       -0.913765    0.629567   -0.074085
      7          6           0        0.504405    0.313979    0.012034
      8          6           0        1.048094   -0.831423   -0.576655
      9          6           0        2.413319   -1.090132   -0.460461
     10          6           0        3.196868   -0.189884    0.242562
     11          7           0        2.714124    0.930217    0.819434
     12          6           0        1.383171    1.160386    0.681875
     13          1           0       -2.976389   -1.971290    0.275728
     14          1           0       -1.330470   -2.009565    0.620438
     15          1           0       -3.301580    2.522355   -0.368670
     16          1           0        0.425377   -1.516840   -1.146363
     17          1           0        2.856002   -1.969413   -0.915243
     18          1           0        4.265364   -0.347656    0.359230
     19          1           0        1.033300    2.077928    1.149629
 ---------------------------------------------------------------------
                    Distance matrix (angstroms):
                    1          2          3          4          5
     1  N    0.000000
     2  C    1.346383   0.000000
     3  N    2.349071   1.330279   0.000000
     4  N    3.374178   2.067962   1.338356   0.000000
     5  N    3.554260   2.249707   2.302725   1.340650   0.000000
     6  C    2.491392   1.432280   2.261765   2.086136   1.346170
     7  C    3.188990   2.618540   3.681402   3.493047   2.448219
     8  C    3.264049   3.198877   4.431562   4.531161   3.659295
     9  C    4.534217   4.564838   5.803736   5.822569   4.817521
    10  C    5.442733   5.260606   6.414422   6.200735   5.023174
    11  N    5.447011   4.989203   5.985160   5.557371   4.295380
    12  C    4.443294   3.786163   4.683734   4.208105   2.958027
    13  H    1.015942   1.994662   2.503962   3.746794   4.219625
    14  H    1.014466   2.035716   3.199956   4.067129   3.986410
    15  H    4.303593   3.042779   2.053433   1.017151   2.055794
    16  H    2.770589   2.990333   4.219631   4.575822   3.974163
    17  H    5.032513   5.274789   6.542551   6.687414   5.765813
    18  H    6.453530   6.335133   7.499265   7.273791   6.073732
    19  H    4.910056   4.047430   4.690731   3.986479   2.730391
                    6          7          8          9         10
     6  C    0.000000
     7  C    1.455410   0.000000
     8  C    2.497191   1.397890   0.000000
     9  C    3.765121   2.416346   1.394371   0.000000
    10  C    4.203460   2.748887   2.387450   1.385149   0.000000
    11  N    3.748379   2.431975   2.797873   2.410482   1.349241
    12  C    2.475714   1.391877   2.379806   2.725980   2.303416
    13  H    3.337850   4.172279   4.268760   5.510659   6.425232
    14  H    2.760620   3.022545   2.911806   4.003705   4.893957
    15  H    3.061223   4.416717   5.496431   6.761550   7.068216
    16  H    2.747753   2.167954   1.087263   2.145799   3.372104
    17  H    4.655469   3.406424   2.162913   1.084404   2.150216
    18  H    5.288299   3.834464   3.385371   2.157135   1.086364
    19  H    2.717773   2.164572   3.382987   3.812276   3.262939
                   11         12         13         14         15
    11  N    0.000000
    12  C    1.357695   0.000000
    13  H    6.410639   5.383132   0.000000
    14  H    5.004064   4.173273   1.682064   0.000000
    15  H    6.335233   4.990540   4.551247   5.040031   0.000000
    16  H    3.884689   3.380438   3.714954   2.539165   5.550686
    17  H    3.381877   3.809943   5.952747   4.459425   7.641370
    18  H    2.061818   3.268842   7.422004   5.843246   8.125604
    19  H    2.061901   1.087698   5.765195   4.751321   4.614535
                   16         17         18         19
    16  H    0.000000
    17  H    2.483178   0.000000
    18  H    4.287108   2.498135   0.000000
    19  H    4.308539   4.895601   4.117575   0.000000
 Stoichiometry    C7H7N5
 Framework group  C1[X(C7H7N5)]
 Deg. of freedom    51
 Full point group                 C1      NOp   1
 Largest Abelian subgroup         C1      NOp   1
 Largest concise Abelian subgroup C1      NOp   1
                         Standard orientation:                         
 ---------------------------------------------------------------------
 Center     Atomic      Atomic             Coordinates (Angstroms)
 Number     Number       Type             X           Y           Z
 ---------------------------------------------------------------------
      1          7           0        1.683868    1.982684    0.473941
      2          6           0        1.847328    0.688021    0.142463
      3          7           0        3.045625    0.126866    0.005226
      4          7           0        2.718708   -1.140266   -0.275306
      5          7           0        1.420710   -1.473860   -0.310800
      6          6           0        0.824126   -0.290589   -0.073882
      7          6           0       -0.624637   -0.153003   -0.054550
      8          6           0       -1.267979    1.000063   -0.513515
      9          6           0       -2.659143    1.083174   -0.468532
     10          6           0       -3.367562    0.004457    0.034607
     11          7           0       -2.786978   -1.128815    0.480778
     12          6           0       -1.431967   -1.184507    0.416132
     13          1           0        2.527099    2.442083    0.805680
     14          1           0        0.871051    2.242532    1.022530
     15          1           0        3.439519   -1.836502   -0.449329
     16          1           0       -0.700619    1.829523   -0.928530
     17          1           0       -3.177913    1.965931   -0.825671
     18          1           0       -4.452437    0.021698    0.088782
     19          1           0       -1.001230   -2.117228    0.773321
 ---------------------------------------------------------------------
 Rotational constants (GHZ):           2.3093601           0.6312283           0.5171275
 Leave Link  202 at Tue Jan 30 19:41:23 2024, MaxMem=  1073741824 cpu:               0.1 elap:               0.1
 (Enter /share/software/user/restricted/gaussian/g16.B01/l301.exe)
 Standard basis: 3-21G* (6D, 7F)
 Ernie: Thresh=  0.10000D-02 Tol=  0.10000D-05 Strict=F.
 There are   122 symmetry adapted cartesian basis functions of A   symmetry.
 There are   122 symmetry adapted basis functions of A   symmetry.
   122 basis functions,   201 primitive gaussians,   122 cartesian basis functions
    42 alpha electrons       42 beta electrons
       nuclear repulsion energy       648.1063722397 Hartrees.
 IExCor=  402 DFT=T Ex+Corr=B3LYP ExCW=0 ScaHFX=  0.200000
 ScaDFX=  0.800000  0.720000  1.000000  0.810000 ScalE2=  1.000000  1.000000
 IRadAn=      5 IRanWt=     -1 IRanGd=            0 ICorTp=0 IEmpDi=  4
 NAtoms=   19 NActive=   19 NUniq=   19 SFac= 1.00D+00 NAtFMM=   60 NAOKFM=F Big=F
 Integral buffers will be    131072 words long.
 Regular integral format.
 Two-electron integral symmetry is turned on.
 Force inversion solution in PCM.
 ------------------------------------------------------------------------------
 Polarizable Continuum Model (PCM)
 =================================
 Model                : PCM.
 Atomic radii         : UFF (Universal Force Field).
 Polarization charges : Total charges.
 Charge compensation  : None.
 Solution method      : Matrix inversion.
 Cavity type          : Scaled VdW (van der Waals Surface) (Alpha=1.100).
 Cavity algorithm     : GePol (No added spheres)
                        Default sphere list used, NSphG=   19.
                        Lebedev-Laikov grids with approx.  5.0 points / Ang**2.
                        Smoothing algorithm: York/Karplus (Gamma=1.0000).
                        Polarization charges: spherical gaussians, with
                                              point-specific exponents (IZeta= 3).
                        Self-potential: point-specific (ISelfS= 7).
                        Self-field    : sphere-specific E.n sum rule (ISelfD= 2).
 1st derivatives      : Analytical E(r).r(x)/FMM algorithm (CHGder, D1EAlg=3).
                        Cavity 1st derivative terms included.
 2nd derivatives      : Analytical E(r).r(xy)/FMM algorithm (CHGder, D2EAlg=3).
                        Cavity 2nd derivative terms included.
 Solvent              : Water, Eps=  78.355300 Eps(inf)=   1.777849
 ------------------------------------------------------------------------------
 Spheres list:
 ISph  on   Nord     Re0    Alpha      Xe            Ye            Ze
    1   N      1    1.8300  1.100      1.683868      1.982684      0.473941
    2   C      2    1.9255  1.100      1.847328      0.688021      0.142463
    3   N      3    1.8300  1.100      3.045625      0.126866      0.005226
    4   N      4    1.8300  1.100      2.718708     -1.140266     -0.275306
    5   N      5    1.8300  1.100      1.420710     -1.473860     -0.310800
    6   C      6    1.9255  1.100      0.824126     -0.290589     -0.073882
    7   C      7    1.9255  1.100     -0.624637     -0.153003     -0.054550
    8   C      8    1.9255  1.100     -1.267979      1.000063     -0.513515
    9   C      9    1.9255  1.100     -2.659143      1.083174     -0.468532
   10   C     10    1.9255  1.100     -3.367562      0.004457      0.034607
   11   N     11    1.8300  1.100     -2.786978     -1.128815      0.480778
   12   C     12    1.9255  1.100     -1.431967     -1.184507      0.416132
   13   H     13    1.4430  1.100      2.527099      2.442083      0.805680
   14   H     14    1.4430  1.100      0.871051      2.242532      1.022530
   15   H     15    1.4430  1.100      3.439519     -1.836502     -0.449329
   16   H     16    1.4430  1.100     -0.700619      1.829523     -0.928530
   17   H     17    1.4430  1.100     -3.177913      1.965931     -0.825671
   18   H     18    1.4430  1.100     -4.452437      0.021698      0.088782
   19   H     19    1.4430  1.100     -1.001230     -2.117228      0.773321
 ------------------------------------------------------------------------------
 GePol: Number of generator spheres                  =      19
 GePol: Total number of spheres                      =      19
 GePol: Number of exposed spheres                    =      19 (100.00%)
 GePol: Number of points                             =    1641
 GePol: Average weight of points                     =       0.13
 GePol: Minimum weight of points                     =   0.51D-09
 GePol: Maximum weight of points                     =    0.20577
 GePol: Number of points with low weight             =      82
 GePol: Fraction of low-weight points (<1% of avg)   =       5.00%
 GePol: Cavity surface area                          =    213.360 Ang**2
 GePol: Cavity volume                                =    217.936 Ang**3
 Leave Link  301 at Tue Jan 30 19:41:23 2024, MaxMem=  1073741824 cpu:               0.6 elap:               0.1
 (Enter /share/software/user/restricted/gaussian/g16.B01/l302.exe)
 NPDir=0 NMtPBC=     1 NCelOv=     1 NCel=       1 NClECP=     1 NCelD=      1
         NCelK=      1 NCelE2=     1 NClLst=     1 CellRange=     0.0.
 One-electron integrals computed using PRISM.
 One-electron integral symmetry used in STVInt
 NBasis=   122 RedAO= T EigKep=  2.30D-03  NBF=   122
 NBsUse=   122 1.00D-06 EigRej= -1.00D+00 NBFU=   122
 Precomputing XC quadrature grid using
 IXCGrd= 4 IRadAn=           5 IRanWt=          -1 IRanGd=           0 AccXCQ= 0.00D+00.
 Generated NRdTot=       0 NPtTot=           0 NUsed=           0 NTot=          32
 NSgBfM=   121   121   121   121   121 MxSgAt=    19 MxSgA2=    19.
 Leave Link  302 at Tue Jan 30 19:41:23 2024, MaxMem=  1073741824 cpu:               1.6 elap:               0.2
 (Enter /share/software/user/restricted/gaussian/g16.B01/l303.exe)
 DipDrv:  MaxL=1.
 Leave Link  303 at Tue Jan 30 19:41:24 2024, MaxMem=  1073741824 cpu:               0.3 elap:               0.1
 (Enter /share/software/user/restricted/gaussian/g16.B01/l308.exe)
 Leave Link  308 at Tue Jan 30 19:41:24 2024, MaxMem=  1073741824 cpu:               0.4 elap:               0.1
 (Enter /share/software/user/restricted/gaussian/g16.B01/l401.exe)
 ExpMin= 1.83D-01 ExpMax= 2.43D+02 ExpMxC= 2.43D+02 IAcc=3 IRadAn=         5 AccDes= 0.00D+00
 Harris functional with IExCor=  402 and IRadAn=       5 diagonalized for initial guess.
 HarFok:  IExCor=  402 AccDes= 0.00D+00 IRadAn=         5 IDoV= 1 UseB2=F ITyADJ=14
 ICtDFT=  3500011 ScaDFX=  1.000000  1.000000  1.000000  1.000000
 FoFCou: FMM=F IPFlag=           0 FMFlag=      100000 FMFlg1=           0
         NFxFlg=           0 DoJE=T BraDBF=F KetDBF=T FulRan=T
         wScrn=  0.000000 ICntrl=       500 IOpCl=  0 I1Cent=   200000004 NGrid=           0
         NMat0=    1 NMatS0=      1 NMatT0=    0 NMatD0=    1 NMtDS0=    0 NMtDT0=    0
 Petite list used in FoFCou.
 Harris En= -541.549072329132    
 JPrj=0 DoOrth=F DoCkMO=F.
 Leave Link  401 at Tue Jan 30 19:41:25 2024, MaxMem=  1073741824 cpu:               6.0 elap:               0.8
 (Enter /share/software/user/restricted/gaussian/g16.B01/l502.exe)
 Integral symmetry usage will be decided dynamically.
 Closed shell SCF:
 Using DIIS extrapolation, IDIIS=  1040.
 NGot=  1073741824 LenX=  1073709459 LenY=  1073694134
 Requested convergence on RMS density matrix=1.00D-08 within 128 cycles.
 Requested convergence on MAX density matrix=1.00D-06.
 Requested convergence on             energy=1.00D-06.
 No special actions if energy rises.
 Fock matrices will be formed incrementally for  20 cycles.

 Cycle   1  Pass 1  IDiag  1:
 FoFJK:  IHMeth= 1 ICntrl=       0 DoSepK=F KAlg= 0 I1Cent=           0 FoldK=F
 IRaf= 860000000 NMat=       1 IRICut=       1 DoRegI=T DoRafI=F ISym2E= 0 IDoP0=0 IntGTp=1.
 FoFCou: FMM=F IPFlag=           0 FMFlag=      100000 FMFlg1=           0
         NFxFlg=           0 DoJE=F BraDBF=F KetDBF=F FulRan=T
         wScrn=  0.000000 ICntrl=         0 IOpCl=  0 I1Cent=           0 NGrid=           0
         NMat0=    1 NMatS0=      1 NMatT0=    0 NMatD0=    1 NMtDS0=    0 NMtDT0=    0
 Symmetry not used in FoFCou.
 Inv3:  Mode=1 IEnd=     8078643.
 Iteration    1 A*A^-1 deviation from unit magnitude is 5.33D-15 for   1633.
 Iteration    1 A*A^-1 deviation from orthogonality  is 1.72D-15 for   1641   1070.
 Iteration    1 A^-1*A deviation from unit magnitude is 5.55D-15 for   1633.
 Iteration    1 A^-1*A deviation from orthogonality  is 4.06D-15 for   1019   1007.
 E= -541.514632826448    
 DIIS: error= 3.52D-02 at cycle   1 NSaved=   1.
 NSaved= 1 IEnMin= 1 EnMin= -541.514632826448     IErMin= 1 ErrMin= 3.52D-02
 ErrMax= 3.52D-02  0.00D+00 EMaxC= 1.00D-01 BMatC= 1.47D-01 BMatP= 1.47D-01
 IDIUse=3 WtCom= 6.48D-01 WtEn= 3.52D-01
 Coeff-Com:  0.100D+01
 Coeff-En:   0.100D+01
 Coeff:      0.100D+01
 Gap=     0.225 Goal=   None    Shift=    0.000
 GapD=    0.225 DampG=1.000 DampE=0.500 DampFc=0.5000 IDamp=-1.
 Damping current iteration by 5.00D-01
 RMSDP=7.03D-03 MaxDP=1.32D-01              OVMax= 2.06D-01

 Cycle   2  Pass 1  IDiag  1:
 RMSU=  3.51D-03    CP:  9.95D-01
 E= -541.572733409160     Delta-E=       -0.058100582712 Rises=F Damp=T
 DIIS: error= 1.15D-02 at cycle   2 NSaved=   2.
 NSaved= 2 IEnMin= 2 EnMin= -541.572733409160     IErMin= 2 ErrMin= 1.15D-02
 ErrMax= 1.15D-02  0.00D+00 EMaxC= 1.00D-01 BMatC= 1.49D-02 BMatP= 1.47D-01
 IDIUse=3 WtCom= 8.85D-01 WtEn= 1.15D-01
 Coeff-Com:  0.875D-01 0.912D+00
 Coeff-En:   0.137D+00 0.863D+00
 Coeff:      0.932D-01 0.907D+00
 Gap=     0.204 Goal=   None    Shift=    0.000
 RMSDP=2.17D-03 MaxDP=3.86D-02 DE=-5.81D-02 OVMax= 1.93D-01

 Cycle   3  Pass 1  IDiag  1:
 RMSU=  2.16D-03    CP:  9.98D-01  9.35D-01
 E= -541.642327559781     Delta-E=       -0.069594150621 Rises=F Damp=F
 DIIS: error= 1.21D-02 at cycle   3 NSaved=   3.
 NSaved= 3 IEnMin= 3 EnMin= -541.642327559781     IErMin= 2 ErrMin= 1.15D-02
 ErrMax= 1.21D-02  0.00D+00 EMaxC= 1.00D-01 BMatC= 1.30D-02 BMatP= 1.49D-02
 IDIUse=3 WtCom= 8.79D-01 WtEn= 1.21D-01
 Coeff-Com: -0.239D-01 0.489D+00 0.535D+00
 Coeff-En:   0.000D+00 0.000D+00 0.100D+01
 Coeff:     -0.210D-01 0.430D+00 0.591D+00
 Gap=     0.173 Goal=   None    Shift=    0.000
 RMSDP=1.39D-03 MaxDP=2.87D-02 DE=-6.96D-02 OVMax= 6.74D-02

 Cycle   4  Pass 1  IDiag  1:
 RMSU=  9.00D-04    CP:  9.99D-01  1.05D+00  5.47D-01
 E= -541.651212053803     Delta-E=       -0.008884494022 Rises=F Damp=F
 DIIS: error= 6.30D-03 at cycle   4 NSaved=   4.
 NSaved= 4 IEnMin= 4 EnMin= -541.651212053803     IErMin= 4 ErrMin= 6.30D-03
 ErrMax= 6.30D-03  0.00D+00 EMaxC= 1.00D-01 BMatC= 3.12D-03 BMatP= 1.30D-02
 IDIUse=3 WtCom= 9.37D-01 WtEn= 6.30D-02
 Coeff-Com: -0.118D-01 0.134D+00 0.355D+00 0.523D+00
 Coeff-En:   0.000D+00 0.000D+00 0.223D+00 0.777D+00
 Coeff:     -0.110D-01 0.126D+00 0.346D+00 0.539D+00
 Gap=     0.173 Goal=   None    Shift=    0.000
 RMSDP=6.03D-04 MaxDP=1.06D-02 DE=-8.88D-03 OVMax= 2.72D-02

 Cycle   5  Pass 1  IDiag  1:
 RMSU=  2.96D-04    CP:  9.99D-01  1.01D+00  6.94D-01  5.62D-01
 E= -541.653854609075     Delta-E=       -0.002642555272 Rises=F Damp=F
 DIIS: error= 1.13D-03 at cycle   5 NSaved=   5.
 NSaved= 5 IEnMin= 5 EnMin= -541.653854609075     IErMin= 5 ErrMin= 1.13D-03
 ErrMax= 1.13D-03  0.00D+00 EMaxC= 1.00D-01 BMatC= 2.81D-04 BMatP= 3.12D-03
 IDIUse=3 WtCom= 9.89D-01 WtEn= 1.13D-02
 Coeff-Com: -0.244D-02 0.180D-01 0.141D+00 0.329D+00 0.514D+00
 Coeff-En:   0.000D+00 0.000D+00 0.000D+00 0.422D-01 0.958D+00
 Coeff:     -0.242D-02 0.178D-01 0.140D+00 0.326D+00 0.519D+00
 Gap=     0.174 Goal=   None    Shift=    0.000
 RMSDP=1.85D-04 MaxDP=2.71D-03 DE=-2.64D-03 OVMax= 5.28D-03

 Cycle   6  Pass 1  IDiag  1:
 RMSU=  8.42D-05    CP:  9.99D-01  1.02D+00  6.71D-01  6.12D-01  4.94D-01
 E= -541.654112258368     Delta-E=       -0.000257649293 Rises=F Damp=F
 DIIS: error= 4.47D-04 at cycle   6 NSaved=   6.
 NSaved= 6 IEnMin= 6 EnMin= -541.654112258368     IErMin= 6 ErrMin= 4.47D-04
 ErrMax= 4.47D-04  0.00D+00 EMaxC= 1.00D-01 BMatC= 1.67D-05 BMatP= 2.81D-04
 IDIUse=3 WtCom= 9.96D-01 WtEn= 4.47D-03
 Coeff-Com: -0.472D-03 0.274D-02 0.589D-01 0.154D+00 0.300D+00 0.485D+00
 Coeff-En:   0.000D+00 0.000D+00 0.000D+00 0.000D+00 0.000D+00 0.100D+01
 Coeff:     -0.469D-03 0.272D-02 0.587D-01 0.153D+00 0.298D+00 0.488D+00
 Gap=     0.174 Goal=   None    Shift=    0.000
 RMSDP=4.45D-05 MaxDP=8.00D-04 DE=-2.58D-04 OVMax= 1.66D-03

 Cycle   7  Pass 1  IDiag  1:
 RMSU=  3.08D-05    CP:  9.99D-01  1.02D+00  6.72D-01  6.14D-01  5.45D-01
                    CP:  6.63D-01
 E= -541.654126784182     Delta-E=       -0.000014525814 Rises=F Damp=F
 DIIS: error= 1.20D-04 at cycle   7 NSaved=   7.
 NSaved= 7 IEnMin= 7 EnMin= -541.654126784182     IErMin= 7 ErrMin= 1.20D-04
 ErrMax= 1.20D-04  0.00D+00 EMaxC= 1.00D-01 BMatC= 1.43D-06 BMatP= 1.67D-05
 IDIUse=3 WtCom= 9.99D-01 WtEn= 1.20D-03
 Coeff-Com:  0.220D-03-0.108D-02 0.105D-01 0.322D-01 0.847D-01 0.266D+00
 Coeff-Com:  0.607D+00
 Coeff-En:   0.000D+00 0.000D+00 0.000D+00 0.000D+00 0.000D+00 0.213D-01
 Coeff-En:   0.979D+00
 Coeff:      0.220D-03-0.108D-02 0.105D-01 0.321D-01 0.846D-01 0.266D+00
 Coeff:      0.608D+00
 Gap=     0.174 Goal=   None    Shift=    0.000
 RMSDP=1.35D-05 MaxDP=2.22D-04 DE=-1.45D-05 OVMax= 4.44D-04

 Cycle   8  Pass 1  IDiag  1:
 RMSU=  7.81D-06    CP:  9.99D-01  1.02D+00  6.73D-01  6.17D-01  5.51D-01
                    CP:  6.80D-01  7.01D-01
 E= -541.654127995023     Delta-E=       -0.000001210841 Rises=F Damp=F
 DIIS: error= 2.62D-05 at cycle   8 NSaved=   8.
 NSaved= 8 IEnMin= 8 EnMin= -541.654127995023     IErMin= 8 ErrMin= 2.62D-05
 ErrMax= 2.62D-05  0.00D+00 EMaxC= 1.00D-01 BMatC= 1.60D-07 BMatP= 1.43D-06
 IDIUse=1 WtCom= 1.00D+00 WtEn= 0.00D+00
 Coeff-Com:  0.197D-03-0.955D-03 0.171D-02 0.733D-02 0.281D-01 0.122D+00
 Coeff-Com:  0.353D+00 0.489D+00
 Coeff:      0.197D-03-0.955D-03 0.171D-02 0.733D-02 0.281D-01 0.122D+00
 Coeff:      0.353D+00 0.489D+00
 Gap=     0.174 Goal=   None    Shift=    0.000
 RMSDP=4.08D-06 MaxDP=8.93D-05 DE=-1.21D-06 OVMax= 1.11D-04

 Cycle   9  Pass 1  IDiag  1:
 RMSU=  2.61D-06    CP:  9.99D-01  1.02D+00  6.73D-01  6.17D-01  5.50D-01
                    CP:  6.91D-01  7.15D-01  6.31D-01
 E= -541.654128141552     Delta-E=       -0.000000146529 Rises=F Damp=F
 DIIS: error= 1.05D-05 at cycle   9 NSaved=   9.
 NSaved= 9 IEnMin= 9 EnMin= -541.654128141552     IErMin= 9 ErrMin= 1.05D-05
 ErrMax= 1.05D-05  0.00D+00 EMaxC= 1.00D-01 BMatC= 6.27D-09 BMatP= 1.60D-07
 IDIUse=1 WtCom= 1.00D+00 WtEn= 0.00D+00
 Coeff-Com:  0.689D-04-0.300D-03-0.715D-04 0.420D-03 0.502D-02 0.306D-01
 Coeff-Com:  0.103D+00 0.214D+00 0.648D+00
 Coeff:      0.689D-04-0.300D-03-0.715D-04 0.420D-03 0.502D-02 0.306D-01
 Coeff:      0.103D+00 0.214D+00 0.648D+00
 Gap=     0.174 Goal=   None    Shift=    0.000
 RMSDP=1.15D-06 MaxDP=2.00D-05 DE=-1.47D-07 OVMax= 3.75D-05

 Cycle  10  Pass 1  IDiag  1:
 RMSU=  8.39D-07    CP:  9.99D-01  1.02D+00  6.73D-01  6.17D-01  5.51D-01
                    CP:  6.94D-01  7.17D-01  6.57D-01  7.79D-01
 E= -541.654128147090     Delta-E=       -0.000000005538 Rises=F Damp=F
 DIIS: error= 4.47D-06 at cycle  10 NSaved=  10.
 NSaved=10 IEnMin=10 EnMin= -541.654128147090     IErMin=10 ErrMin= 4.47D-06
 ErrMax= 4.47D-06  0.00D+00 EMaxC= 1.00D-01 BMatC= 1.29D-09 BMatP= 6.27D-09
 IDIUse=1 WtCom= 1.00D+00 WtEn= 0.00D+00
 Coeff-Com:  0.477D-05-0.818D-05-0.280D-03-0.925D-03-0.182D-02-0.311D-02
 Coeff-Com: -0.165D-02 0.351D-01 0.353D+00 0.620D+00
 Coeff:      0.477D-05-0.818D-05-0.280D-03-0.925D-03-0.182D-02-0.311D-02
 Coeff:     -0.165D-02 0.351D-01 0.353D+00 0.620D+00
 Gap=     0.174 Goal=   None    Shift=    0.000
 RMSDP=4.11D-07 MaxDP=6.25D-06 DE=-5.54D-09 OVMax= 1.37D-05

 Cycle  11  Pass 1  IDiag  1:
 RMSU=  2.13D-07    CP:  9.99D-01  1.02D+00  6.73D-01  6.17D-01  5.51D-01
                    CP:  6.94D-01  7.20D-01  6.64D-01  8.45D-01  6.90D-01
 E= -541.654128148323     Delta-E=       -0.000000001234 Rises=F Damp=F
 DIIS: error= 8.71D-07 at cycle  11 NSaved=  11.
 NSaved=11 IEnMin=11 EnMin= -541.654128148323     IErMin=11 ErrMin= 8.71D-07
 ErrMax= 8.71D-07  0.00D+00 EMaxC= 1.00D-01 BMatC= 7.70D-11 BMatP= 1.29D-09
 IDIUse=1 WtCom= 1.00D+00 WtEn= 0.00D+00
 Coeff-Com: -0.766D-06 0.934D-05-0.152D-03-0.533D-03-0.128D-02-0.337D-02
 Coeff-Com: -0.669D-02 0.757D-02 0.156D+00 0.318D+00 0.530D+00
 Coeff:     -0.766D-06 0.934D-05-0.152D-03-0.533D-03-0.128D-02-0.337D-02
 Coeff:     -0.669D-02 0.757D-02 0.156D+00 0.318D+00 0.530D+00
 Gap=     0.174 Goal=   None    Shift=    0.000
 RMSDP=1.04D-07 MaxDP=2.12D-06 DE=-1.23D-09 OVMax= 3.39D-06

 Cycle  12  Pass 1  IDiag  1:
 RMSU=  7.28D-08    CP:  9.99D-01  1.02D+00  6.73D-01  6.17D-01  5.51D-01
                    CP:  6.94D-01  7.21D-01  6.67D-01  8.48D-01  7.20D-01
                    CP:  7.54D-01
 E= -541.654128148397     Delta-E=       -0.000000000074 Rises=F Damp=F
 DIIS: error= 2.70D-07 at cycle  12 NSaved=  12.
 NSaved=12 IEnMin=12 EnMin= -541.654128148397     IErMin=12 ErrMin= 2.70D-07
 ErrMax= 2.70D-07  0.00D+00 EMaxC= 1.00D-01 BMatC= 6.16D-12 BMatP= 7.70D-11
 IDIUse=1 WtCom= 1.00D+00 WtEn= 0.00D+00
 Coeff-Com: -0.437D-06 0.341D-05-0.189D-04-0.755D-04-0.223D-03-0.813D-03
 Coeff-Com: -0.233D-02-0.161D-02 0.115D-01 0.300D-01 0.230D+00 0.733D+00
 Coeff:     -0.437D-06 0.341D-05-0.189D-04-0.755D-04-0.223D-03-0.813D-03
 Coeff:     -0.233D-02-0.161D-02 0.115D-01 0.300D-01 0.230D+00 0.733D+00
 Gap=     0.174 Goal=   None    Shift=    0.000
 RMSDP=3.27D-08 MaxDP=6.03D-07 DE=-7.39D-11 OVMax= 1.23D-06

 Cycle  13  Pass 1  IDiag  1:
 RMSU=  2.01D-08    CP:  9.99D-01  1.02D+00  6.73D-01  6.17D-01  5.51D-01
                    CP:  6.94D-01  7.21D-01  6.68D-01  8.53D-01  7.20D-01
                    CP:  8.15D-01  7.72D-01
 E= -541.654128148402     Delta-E=       -0.000000000005 Rises=F Damp=F
 DIIS: error= 8.90D-08 at cycle  13 NSaved=  13.
 NSaved=13 IEnMin=13 EnMin= -541.654128148402     IErMin=13 ErrMin= 8.90D-08
 ErrMax= 8.90D-08  0.00D+00 EMaxC= 1.00D-01 BMatC= 1.27D-12 BMatP= 6.16D-12
 IDIUse=1 WtCom= 1.00D+00 WtEn= 0.00D+00
 Coeff-Com: -0.240D-06 0.183D-05-0.109D-05-0.127D-04-0.573D-04-0.312D-03
 Coeff-Com: -0.110D-02-0.152D-02-0.264D-02-0.121D-02 0.107D+00 0.444D+00
 Coeff-Com:  0.455D+00
 Coeff:     -0.240D-06 0.183D-05-0.109D-05-0.127D-04-0.573D-04-0.312D-03
 Coeff:     -0.110D-02-0.152D-02-0.264D-02-0.121D-02 0.107D+00 0.444D+00
 Coeff:      0.455D+00
 Gap=     0.174 Goal=   None    Shift=    0.000
 RMSDP=1.02D-08 MaxDP=2.05D-07 DE=-5.00D-12 OVMax= 3.05D-07

 Cycle  14  Pass 1  IDiag  1:
 RMSU=  5.42D-09    CP:  9.99D-01  1.02D+00  6.73D-01  6.17D-01  5.51D-01
                    CP:  6.94D-01  7.21D-01  6.68D-01  8.53D-01  7.21D-01
                    CP:  8.21D-01  8.26D-01  6.50D-01
 E= -541.654128148402     Delta-E=        0.000000000000 Rises=F Damp=F
 DIIS: error= 1.49D-08 at cycle  14 NSaved=  14.
 NSaved=14 IEnMin=13 EnMin= -541.654128148402     IErMin=14 ErrMin= 1.49D-08
 ErrMax= 1.49D-08  0.00D+00 EMaxC= 1.00D-01 BMatC= 2.00D-14 BMatP= 1.27D-12
 IDIUse=1 WtCom= 1.00D+00 WtEn= 0.00D+00
 Coeff-Com:  0.680D-07-0.179D-06 0.180D-05 0.449D-05 0.127D-04 0.167D-04
 Coeff-Com: -0.683D-05-0.140D-03-0.213D-02-0.361D-02-0.100D-02 0.220D-01
 Coeff-Com:  0.529D-01 0.932D+00
 Coeff:      0.680D-07-0.179D-06 0.180D-05 0.449D-05 0.127D-04 0.167D-04
 Coeff:     -0.683D-05-0.140D-03-0.213D-02-0.361D-02-0.100D-02 0.220D-01
 Coeff:      0.529D-01 0.932D+00
 Gap=     0.174 Goal=   None    Shift=    0.000
 RMSDP=2.00D-09 MaxDP=3.51D-08 DE= 1.14D-13 OVMax= 6.85D-08

 Error on total polarization charges =  0.00344
 SCF Done:  E(RB3LYP) =  -541.654128148     A.U. after   14 cycles
            NFock= 14  Conv=0.20D-08     -V/T= 2.0075
 KE= 5.376421251630D+02 PE=-2.556000523551D+03 EE= 8.285978980002D+02
 Leave Link  502 at Tue Jan 30 19:41:38 2024, MaxMem=  1073741824 cpu:             103.9 elap:              13.3
 (Enter /share/software/user/restricted/gaussian/g16.B01/l801.exe)
 DoSCS=F DFT=T ScalE2(SS,OS)=  1.000000  1.000000
 ExpMin= 1.83D-01 ExpMax= 2.43D+02 ExpMxC= 2.43D+02 IAcc=3 IRadAn=         5 AccDes= 0.00D+00
 HarFok:  IExCor=  205 AccDes= 0.00D+00 IRadAn=         5 IDoV=-2 UseB2=F ITyADJ=14
 ICtDFT= 12500011 ScaDFX=  1.000000  1.000000  1.000000  1.000000
 Largest valence mixing into a core orbital is  2.27D-04
 Largest core mixing into a valence orbital is  6.19D-05
 Range of M.O.s used for correlation:    13   122
 NBasis=   122 NAE=    42 NBE=    42 NFC=    12 NFV=     0
 NROrb=    110 NOA=    30 NOB=    30 NVA=    80 NVB=    80
 Leave Link  801 at Tue Jan 30 19:41:39 2024, MaxMem=  1073741824 cpu:               1.1 elap:               0.2
 (Enter /share/software/user/restricted/gaussian/g16.B01/l914.exe)
 RHF ground state
 Keep R1, R2, and R3 ints in memory in canonical form, NReq=102918893.
 FoFCou: FMM=F IPFlag=           0 FMFlag=           0 FMFlg1=           0
         NFxFlg=           0 DoJE=F BraDBF=F KetDBF=F FulRan=T
         wScrn=  0.000000 ICntrl=       600 IOpCl=  0 I1Cent=           0 NGrid=           0
         NMat0=    1 NMatS0=   7503 NMatT0=    0 NMatD0=    1 NMtDS0=    0 NMtDT0=    0
 Symmetry not used in FoFCou.
 Two-electron integral symmetry not used.
 MDV=  1073741824 DFT=T DoStab=F Mixed=T DoRPA=T DoScal=F NonHer=T
 NEqPCM:  Using equilibrium solvation (IEInf=0, Eps=  78.3553, EpsInf=   1.7778)
 Making orbital integer symmetry assigments:
 Orbital symmetries:
       Occupied  (A) (A) (A) (A) (A) (A) (A) (A) (A) (A) (A) (A)
                 (A) (A) (A) (A) (A) (A) (A) (A) (A) (A) (A) (A)
                 (A) (A) (A) (A) (A) (A) (A) (A) (A) (A) (A) (A)
                 (A) (A) (A) (A) (A) (A)
       Virtual   (A) (A) (A) (A) (A) (A) (A) (A) (A) (A) (A) (A)
                 (A) (A) (A) (A) (A) (A) (A) (A) (A) (A) (A) (A)
                 (A) (A) (A) (A) (A) (A) (A) (A) (A) (A) (A) (A)
                 (A) (A) (A) (A) (A) (A) (A) (A) (A) (A) (A) (A)
                 (A) (A) (A) (A) (A) (A) (A) (A) (A) (A) (A) (A)
                 (A) (A) (A) (A) (A) (A) (A) (A) (A) (A) (A) (A)
                 (A) (A) (A) (A) (A) (A) (A) (A)
    20 initial guesses have been made.
 Convergence on wavefunction:    0.000001000000000
 Davidson Disk Diagonalization:  ConvIn= 1.00D-06 SkipCon=T Conv= 1.00D-06.
 Max sub-space:  2000 roots to seek:    20 dimension of matrix:         4800
 Iteration     1 Dimension    20 NMult     0 NNew     20
 CISAX will form    20 AO SS matrices at one time.
 NMat=    20 NSing=    20 JSym2X= 0.
 New state      3 was old state      4
 New state      4 was old state      6
 New state      5 was old state      7
 Excitation Energies [eV] at current iteration:
 Root      1 :     4.211900880248908
 Root      2 :     4.453063812017786
 Root      3 :     4.884628478512857
 Root      4 :     5.019791891156399
 Root      5 :     5.601131783833122
 Root      6 :     5.966175199460074
 Root      7 :     6.052338219026810
 Root      8 :     6.276893033844410
 Root      9 :     6.511869078478088
 Root     10 :     6.632779995940153
 Root     11 :     6.680252382069394
 Root     12 :     6.978606220652261
 Root     13 :     7.148112375423064
 Root     14 :     7.197561191315545
 Root     15 :     7.541711852352300
 Root     16 :     7.755798372576427
 Root     17 :     7.876691681971504
 Root     18 :     8.071837952087035
 Root     19 :     8.738361115409019
 Root     20 :     9.004628923940574
 Iteration     2 Dimension    30 NMult    20 NNew     10
 CISAX will form    10 AO SS matrices at one time.
 NMat=    10 NSing=    10 JSym2X= 0.
 Root      1 not converged, maximum delta is    0.243878931023151
 Root      2 not converged, maximum delta is    0.217394830039902
 Root      3 not converged, maximum delta is    0.073419580351743
 Root      4 not converged, maximum delta is    0.078723740386294
 Root      5 not converged, maximum delta is    0.074134027257546
 Excitation Energies [eV] at current iteration:
 Root      1 :     4.084438608542582   Change is   -0.127462271706326
 Root      2 :     4.320455599756413   Change is   -0.132608212261372
 Root      3 :     4.822325876947231   Change is   -0.062302601565627
 Root      4 :     4.978362945638164   Change is   -0.041428945518236
 Root      5 :     5.511840198332436   Change is   -0.089291585500686
 Iteration     3 Dimension    40 NMult    30 NNew     10
 CISAX will form    10 AO SS matrices at one time.
 NMat=    10 NSing=    10 JSym2X= 0.
 Root      1 not converged, maximum delta is    0.015386141455775
 Root      2 not converged, maximum delta is    0.016619269996649
 Root      3 not converged, maximum delta is    0.006562804056256
 Root      4 not converged, maximum delta is    0.012408172681034
 Root      5 not converged, maximum delta is    0.094875519978385
 Excitation Energies [eV] at current iteration:
 Root      1 :     4.074455089159508   Change is   -0.009983519383074
 Root      2 :     4.311436541215061   Change is   -0.009019058541352
 Root      3 :     4.820047441548325   Change is   -0.002278435398905
 Root      4 :     4.976711184371485   Change is   -0.001651761266678
 Root      5 :     5.490201131755239   Change is   -0.021639066577197
 Iteration     4 Dimension    50 NMult    40 NNew     10
 CISAX will form    10 AO SS matrices at one time.
 NMat=    10 NSing=    10 JSym2X= 0.
 Root      1 not converged, maximum delta is    0.002142244866038
 Root      2 not converged, maximum delta is    0.002493027994808
 Root      3 not converged, maximum delta is    0.002752009699042
 Root      4 not converged, maximum delta is    0.003662588624006
 Root      5 not converged, maximum delta is    0.391542757155489
 Excitation Energies [eV] at current iteration:
 Root      1 :     4.073503278048102   Change is   -0.000951811111406
 Root      2 :     4.310780656188042   Change is   -0.000655885027019
 Root      3 :     4.819855018222063   Change is   -0.000192423326263
 Root      4 :     4.976557087876706   Change is   -0.000154096494779
 Root      5 :     5.461296139918991   Change is   -0.028904991836248
 Iteration     5 Dimension    60 NMult    50 NNew     10
 CISAX will form    10 AO SS matrices at one time.
 NMat=    10 NSing=    10 JSym2X= 0.
 Root      1 not converged, maximum delta is    0.000436849653173
 Root      2 not converged, maximum delta is    0.000337041601174
 Root      3 not converged, maximum delta is    0.000304692649423
 Root      4 not converged, maximum delta is    0.000668779164948
 Root      5 not converged, maximum delta is    0.232264611715688
 Excitation Energies [eV] at current iteration:
 Root      1 :     4.073457444018351   Change is   -0.000045834029751
 Root      2 :     4.310750435140477   Change is   -0.000030221047565
 Root      3 :     4.819844378593042   Change is   -0.000010639629020
 Root      4 :     4.976540691300573   Change is   -0.000016396576133
 Root      5 :     5.425225700664723   Change is   -0.036070439254268
 Iteration     6 Dimension    70 NMult    60 NNew     10
 CISAX will form    10 AO SS matrices at one time.
 NMat=    10 NSing=    10 JSym2X= 0.
 Root      1 not converged, maximum delta is    0.000048547742356
 Root      2 not converged, maximum delta is    0.000038438979878
 Root      3 not converged, maximum delta is    0.000037420633678
 Root      4 not converged, maximum delta is    0.000052862694255
 Root      5 not converged, maximum delta is    0.014687133246901
 Excitation Energies [eV] at current iteration:
 Root      1 :     4.073456035755170   Change is   -0.000001408263182
 Root      2 :     4.310749146307716   Change is   -0.000001288832761
 Root      3 :     4.819843964947625   Change is   -0.000000413645417
 Root      4 :     4.976539936528387   Change is   -0.000000754772186
 Root      5 :     5.422793941251135   Change is   -0.002431759413588
 Iteration     7 Dimension    80 NMult    70 NNew     10
 CISAX will form    10 AO SS matrices at one time.
 NMat=    10 NSing=    10 JSym2X= 0.
 Root      1 not converged, maximum delta is    0.000009896687846
 Root      2 not converged, maximum delta is    0.000007996686847
 Root      3 not converged, maximum delta is    0.000006437094815
 Root      4 not converged, maximum delta is    0.000006094616011
 Root      5 not converged, maximum delta is    0.001096097525638
 Excitation Energies [eV] at current iteration:
 Root      1 :     4.073455995781441   Change is   -0.000000039973728
 Root      2 :     4.310749109181758   Change is   -0.000000037125957
 Root      3 :     4.819843943573865   Change is   -0.000000021373760
 Root      4 :     4.976539903673678   Change is   -0.000000032854709
 Root      5 :     5.422652269565107   Change is   -0.000141671686028
 Iteration     8 Dimension    90 NMult    80 NNew     10
 CISAX will form    10 AO SS matrices at one time.
 NMat=    10 NSing=    10 JSym2X= 0.
 Root      1 not converged, maximum delta is    0.000001535762057
 Root      2 not converged, maximum delta is    0.000001836578795
 Root      3 not converged, maximum delta is    0.000001719130953
 Root      4 not converged, maximum delta is    0.000001070401396
 Root      5 not converged, maximum delta is    0.000187626284454
 Excitation Energies [eV] at current iteration:
 Root      1 :     4.073455994580797   Change is   -0.000000001200644
 Root      2 :     4.310749108004145   Change is   -0.000000001177613
 Root      3 :     4.819843942433941   Change is   -0.000000001139924
 Root      4 :     4.976539902202115   Change is   -0.000000001471563
 Root      5 :     5.422643244060267   Change is   -0.000009025504840
 Iteration     9 Dimension   100 NMult    90 NNew     10
 CISAX will form    10 AO SS matrices at one time.
 NMat=    10 NSing=    10 JSym2X= 0.
 Root      1 has converged.
 Root      2 has converged.
 Root      3 has converged.
 Root      4 has converged.
 Root      5 not converged, maximum delta is    0.000031770134414
 Excitation Energies [eV] at current iteration:
 Root      1 :     4.073455994538497   Change is   -0.000000000042300
 Root      2 :     4.310749107959539   Change is   -0.000000000044606
 Root      3 :     4.819843942369623   Change is   -0.000000000064319
 Root      4 :     4.976539902131793   Change is   -0.000000000070321
 Root      5 :     5.422642695735722   Change is   -0.000000548324546
 Iteration    10 Dimension   102 NMult   100 NNew      2
 CISAX will form     2 AO SS matrices at one time.
 NMat=     2 NSing=     2 JSym2X= 0.
 Root      1 has converged.
 Root      2 has converged.
 Root      3 has converged.
 Root      4 has converged.
 Root      5 not converged, maximum delta is    0.000009951848674
 Excitation Energies [eV] at current iteration:
 Root      1 :     4.073455994538457   Change is   -0.000000000000040
 Root      2 :     4.310749107959444   Change is   -0.000000000000095
 Root      3 :     4.819843942369571   Change is   -0.000000000000051
 Root      4 :     4.976539902131645   Change is   -0.000000000000149
 Root      5 :     5.422642649748417   Change is   -0.000000045987304
 Iteration    11 Dimension   104 NMult   102 NNew      2
 CISAX will form     2 AO SS matrices at one time.
 NMat=     2 NSing=     2 JSym2X= 0.
 Root      1 has converged.
 Root      2 has converged.
 Root      3 has converged.
 Root      4 has converged.
 Root      5 not converged, maximum delta is    0.000002885116506
 Excitation Energies [eV] at current iteration:
 Root      1 :     4.073455994538437   Change is   -0.000000000000020
 Root      2 :     4.310749107959462   Change is    0.000000000000019
 Root      3 :     4.819843942369571   Change is    0.000000000000000
 Root      4 :     4.976539902131595   Change is   -0.000000000000050
 Root      5 :     5.422642647181185   Change is   -0.000000002567233
 Iteration    12 Dimension   106 NMult   104 NNew      2
 CISAX will form     2 AO SS matrices at one time.
 NMat=     2 NSing=     2 JSym2X= 0.
 Root      1 has converged.
 Root      2 has converged.
 Root      3 has converged.
 Root      4 has converged.
 Root      5 has converged.
 Excitation Energies [eV] at current iteration:
 Root      1 :     4.073455994538376   Change is   -0.000000000000060
 Root      2 :     4.310749107959462   Change is    0.000000000000000
 Root      3 :     4.819843942369451   Change is   -0.000000000000119
 Root      4 :     4.976539902131545   Change is   -0.000000000000050
 Root      5 :     5.422642646996899   Change is   -0.000000000184285
 Convergence achieved on expansion vectors.
 ***********************************************************************
 Excited states from <AA,BB:AA,BB> singles matrix:
 ***********************************************************************
 
 1PDM for each excited state written to RWF  633
 Ground to excited state transition densities written to RWF  633
 Ground to excited state transition electric dipole moments (Au):
       state          X           Y           Z        Dip. S.      Osc.
         1        -1.4029      0.0717     -0.0619      1.9772      0.1973
         2         0.8314      0.2830     -0.0544      0.7743      0.0818
         3        -0.1698     -0.0661     -0.2131      0.0786      0.0093
         4         0.1062      0.0069     -0.1220      0.0262      0.0032
         5         0.2503     -0.6529     -0.1410      0.5088      0.0676
 Ground to excited state transition velocity dipole moments (Au):
       state          X           Y           Z        Dip. S.      Osc.
         1         0.1772     -0.0102     -0.0035      0.0315      0.1403
         2        -0.1081     -0.0421     -0.0054      0.0135      0.0567
         3         0.0291      0.0316      0.0883      0.0096      0.0363
         4        -0.0133      0.0130      0.0457      0.0024      0.0089
         5        -0.0287      0.1037      0.0261      0.0123      0.0410
 Ground to excited state transition magnetic dipole moments (Au):
       state          X           Y           Z
         1         0.0407     -0.1005      0.5820
         2         0.0228      0.0908      0.1552
         3        -0.7446      0.7348     -0.2178
         4        -0.4044      0.4779     -0.1138
         5        -0.0398     -0.0179      0.1948
 Ground to excited state transition velocity quadrupole moments (Au):
       state          XX          YY          ZZ          XY          XZ          YZ
         1        -0.0661      0.1047     -0.0550      0.0784      0.0166      0.0845
         2        -0.0420     -0.0021     -0.0257      0.1651     -0.0113     -0.0721
         3        -0.0476     -0.1270      0.1324     -0.1820     -0.4253     -0.1466
         4        -0.0989     -0.1019      0.1028     -0.0617     -0.2624     -0.0997
         5        -0.7049      0.1953      0.0363      0.4059      0.1089      0.0564
 <0|del|b> * <b|rxdel|0> + <0|del|b> * <b|delr+rdel|0>
 Rotatory Strengths (R) in cgs (10**-40 erg-esu-cm/Gauss)
       state          XX          YY          ZZ    R(velocity)    E-M Angle
         1        -2.6063     48.2626    -16.3203      9.7787       86.61
         2       -13.4698     12.0143    -30.3678    -10.6078      109.81
         3         2.7505    -58.0831    -15.2018    -23.5115       99.69
         4         3.0957      8.3129     13.2263      8.2117       78.29
         5         4.4522    -10.6114     21.6532      5.1647       78.61
 1/2[<0|r|b>*<b|rxdel|0> + (<0|rxdel|b>*<b|r|0>)*]
 Rotatory Strengths (R) in cgs (10**-40 erg-esu-cm/Gauss)
       state          XX          YY          ZZ     R(length)
         1        40.3671      5.0986     25.4711     23.6456
         2       -13.4055    -18.1799      5.9679     -8.5392
         3       -89.4300     34.3385    -32.8243    -29.3053
         4        30.3827     -2.3273     -9.8201      6.0784
         5         7.0401     -8.2565     19.4185      6.0674
  1/2[<0|del|b>*<b|r|0> + (<0|r|b>*<b|del|0>)*] (Au)
       state          X           Y           Z        Dip. S.   Osc.(frdel)
         1        -0.2486     -0.0007      0.0002      0.2491      0.1661
         2        -0.0898     -0.0119      0.0003      0.1015      0.0676
         3        -0.0049     -0.0021     -0.0188      0.0259      0.0172
         4        -0.0014      0.0001     -0.0056      0.0069      0.0046
         5        -0.0072     -0.0677     -0.0037      0.0786      0.0524

 Excitation energies and oscillator strengths:
 
 Excited State   1:      Singlet-A      4.0735 eV  304.37 nm  f=0.1973  <S**2>=0.000
      42 -> 43         0.69480
      42 -> 44         0.10825
 This state for optimization and/or second-order correction.
 Total Energy, E(TD-HF/TD-DFT) =  -541.504431395    
 Copying the excited state density for this state as the 1-particle RhoCI density.
 
 Excited State   2:      Singlet-A      4.3107 eV  287.62 nm  f=0.0818  <S**2>=0.000
      42 -> 43        -0.10901
      42 -> 44         0.69007
 
 Excited State   3:      Singlet-A      4.8198 eV  257.24 nm  f=0.0093  <S**2>=0.000
      41 -> 43         0.66476
      41 -> 44         0.19727
 
 Excited State   4:      Singlet-A      4.9765 eV  249.14 nm  f=0.0032  <S**2>=0.000
      41 -> 43        -0.18606
      41 -> 44         0.66659
 
 Excited State   5:      Singlet-A      5.4226 eV  228.64 nm  f=0.0676  <S**2>=0.000
      42 -> 45         0.68609
 SavETr:  write IOETrn=   770 NScale= 10 NData=  16 NLR=1 NState=    5 LETran=     100.
 The selected state is a singlet.
 CISGrd: IGrad=3 NXY=2 DFT=T
 CISAX will form     1 AO SS matrices at one time.
 NMat=     1 NSing=     1 JSym2X= 0.
 GePol: Maximum number of non-zero 1st derivatives   =     191
 GePol: Maximum number of non-zero 2nd derivatives   =     191
 Leave Link  914 at Tue Jan 30 19:42:37 2024, MaxMem=  1073741824 cpu:             461.6 elap:              58.6
 (Enter /share/software/user/restricted/gaussian/g16.B01/l1002.exe)
 Minotr:  Closed shell wavefunction.
          Computing CIS/TDA/TD derivatives.
          Using Z-Vector for PSCF gradient.
          Skipping F1 and S1 gradient terms here.
          IDoAtm=1111111111111111111
 NEqPCM:  Using equilibrium solvation (IEInf=0, Eps=  78.3553, EpsInf=   1.7778)
          Frozen-core window.
          Direct CPHF calculation.
          Differentiating once with respect to electric field.
                with respect to dipole field.
          Differentiating once with respect to nuclear coordinates.
          Requested convergence is 1.0D-10 RMS, and 1.0D-09 maximum.
          NewPWx=F KeepS1=T KeepF1=T KeepIn=T MapXYZ=F SortEE=F KeepMc=T.
 Keep R1 ints in memory in canonical form, NReq=35748675.
 FoFCou: FMM=F IPFlag=           0 FMFlag=           0 FMFlg1=           0
         NFxFlg=           0 DoJE=F BraDBF=F KetDBF=F FulRan=T
         wScrn=  0.000000 ICntrl=       600 IOpCl=  0 I1Cent=           0 NGrid=           0
         NMat0=    1 NMatS0=   7503 NMatT0=    0 NMatD0=    1 NMtDS0=    0 NMtDT0=    0
 Symmetry not used in FoFCou.
 Two-electron integral symmetry not used.
          MDV=    1073741824 using IRadAn=       5.
          Solving linear equations separately, MaxMat=       0.
          There are     1 degrees of freedom in the 1st order CPHF.  IDoFFX=0 NUNeed=     1.
 LinEq1:  Iter=  0 NonCon=     1 RMS=2.04D-02 Max=7.05D-01 NDo=     1
 AX will form     1 AO Fock derivatives at one time.
 LinEq1:  Iter=  1 NonCon=     1 RMS=9.12D-03 Max=2.59D-01 NDo=     1
 LinEq1:  Iter=  2 NonCon=     1 RMS=6.44D-03 Max=1.56D-01 NDo=     1
 LinEq1:  Iter=  3 NonCon=     1 RMS=3.96D-03 Max=8.53D-02 NDo=     1
 LinEq1:  Iter=  4 NonCon=     1 RMS=1.68D-03 Max=3.46D-02 NDo=     1
 LinEq1:  Iter=  5 NonCon=     1 RMS=1.07D-03 Max=1.58D-02 NDo=     1
 LinEq1:  Iter=  6 NonCon=     1 RMS=4.17D-04 Max=6.60D-03 NDo=     1
 LinEq1:  Iter=  7 NonCon=     1 RMS=3.41D-04 Max=6.17D-03 NDo=     1
 LinEq1:  Iter=  8 NonCon=     1 RMS=9.54D-05 Max=1.73D-03 NDo=     1
 LinEq1:  Iter=  9 NonCon=     1 RMS=6.49D-05 Max=1.29D-03 NDo=     1
 LinEq1:  Iter= 10 NonCon=     1 RMS=1.49D-05 Max=2.48D-04 NDo=     1
 LinEq1:  Iter= 11 NonCon=     1 RMS=1.18D-05 Max=2.00D-04 NDo=     1
 LinEq1:  Iter= 12 NonCon=     1 RMS=3.89D-06 Max=5.25D-05 NDo=     1
 LinEq1:  Iter= 13 NonCon=     1 RMS=2.49D-06 Max=5.95D-05 NDo=     1
 LinEq1:  Iter= 14 NonCon=     1 RMS=8.09D-07 Max=1.04D-05 NDo=     1
 LinEq1:  Iter= 15 NonCon=     1 RMS=3.24D-07 Max=5.83D-06 NDo=     1
 LinEq1:  Iter= 16 NonCon=     1 RMS=1.95D-07 Max=2.96D-06 NDo=     1
 LinEq1:  Iter= 17 NonCon=     1 RMS=6.24D-08 Max=9.40D-07 NDo=     1
 LinEq1:  Iter= 18 NonCon=     1 RMS=3.96D-08 Max=7.98D-07 NDo=     1
 LinEq1:  Iter= 19 NonCon=     1 RMS=1.20D-08 Max=1.72D-07 NDo=     1
 LinEq1:  Iter= 20 NonCon=     1 RMS=6.16D-09 Max=1.12D-07 NDo=     1
 LinEq1:  Iter= 21 NonCon=     1 RMS=1.57D-09 Max=2.08D-08 NDo=     1
 LinEq1:  Iter= 22 NonCon=     1 RMS=2.05D-10 Max=2.60D-09 NDo=     1
 LinEq1:  Iter= 23 NonCon=     0 RMS=2.44D-11 Max=3.38D-10 NDo=     1
 Linear equations converged to 1.000D-10 1.000D-09 after    23 iterations.
          There are     1 degrees of freedom in the 1st order CPHF.  IDoFFX=0 NUNeed=     1.
 End of Minotr F.D. properties file   721 does not exist.
 End of Minotr F.D. properties file   722 does not exist.
 End of Minotr F.D. properties file   788 does not exist.
 Leave Link 1002 at Tue Jan 30 19:43:02 2024, MaxMem=  1073741824 cpu:             187.2 elap:              24.5
 (Enter /share/software/user/restricted/gaussian/g16.B01/l1101.exe)
 Using compressed Sx but separate Hx and Fx, NAtomX=    19.
 Will process     20 centers per pass.
 Leave Link 1101 at Tue Jan 30 19:43:03 2024, MaxMem=  1073741824 cpu:               0.9 elap:               0.2
 (Enter /share/software/user/restricted/gaussian/g16.B01/l1102.exe)
 Use density number 6.
 Symmetrizing basis deriv contribution to polar:
 IMax=3 JMax=2 DiffMx= 0.00D+00
 Leave Link 1102 at Tue Jan 30 19:43:03 2024, MaxMem=  1073741824 cpu:               0.3 elap:               0.1
 (Enter /share/software/user/restricted/gaussian/g16.B01/l1110.exe)
 Forming Gx(P) for the SCF density, NAtomX=    19.
 Integral derivatives from FoFJK, PRISM(SPDF).
 Do as many integral derivatives as possible in FoFJK.
 G2DrvN: MDV=    1073740206.
 G2DrvN: will do    20 centers at a time, making    1 passes.
 Calling FoFCou, ICntrl=  3107 FMM=F I1Cent=   0 AccDes= 0.00D+00.
 FoFJK:  IHMeth= 1 ICntrl=    3107 DoSepK=F KAlg= 0 I1Cent=           0 FoldK=F
 IRaf=         0 NMat=       1 IRICut=       1 DoRegI=T DoRafI=F ISym2E= 0 IDoP0=0 IntGTp=1.
 FoFCou: FMM=F IPFlag=           0 FMFlag=      100000 FMFlg1=           0
         NFxFlg=           0 DoJE=F BraDBF=F KetDBF=F FulRan=T
         wScrn=  0.000000 ICntrl=      3107 IOpCl=  0 I1Cent=           0 NGrid=           0
         NMat0=    1 NMatS0=      1 NMatT0=    0 NMatD0=    1 NMtDS0=    0 NMtDT0=    0
 Symmetry not used in FoFCou.
 NEqPCM:  Using equilibrium solvation (IEInf=0, Eps=  78.3553, EpsInf=   1.7778)
 G2PCM: DoFxE=T DoFxN=T DoGrad=T DoDP/DQ/DG/TGxP=FFFF NFrqRd=   0 IEInf=0 SqF1=F DoCFld=F IF1Alg=4.
 Forming Gx(P) for generalized density number  6 NAtomX=    19.
 Integral derivatives from FoFJK, PRISM(SPDF).
 Do as many integral derivatives as possible in FoFJK.
 G2DrvN: MDV=    1073740206.
 G2DrvN: will do    20 centers at a time, making    1 passes.
 Calling FoFCou, ICntrl=  3107 FMM=F I1Cent=   0 AccDes= 0.00D+00.
 NEqPCM:  Using equilibrium solvation (IEInf=0, Eps=  78.3553, EpsInf=   1.7778)
 G2PCM: DoFxE=T DoFxN=F DoGrad=F DoDP/DQ/DG/TGxP=FFFF NFrqRd=   0 IEInf=0 SqF1=F DoCFld=F IF1Alg=4.
 Forming Gx(T) for CIS/TDA/TD state  1 NAtomX=    19.
 Integral derivatives from FoFJK, PRISM(SPDF).
 Do as many integral derivatives as possible in FoFJK.
 G2DrvN: MDV=    1073740206.
 G2DrvN: will do    20 centers at a time, making    1 passes.
 Calling FoFCou, ICntrl=  3107 FMM=F I1Cent=   0 AccDes= 0.00D+00.
 NEqPCM:  Using equilibrium solvation (IEInf=0, Eps=  78.3553, EpsInf=   1.7778)
 G2PCM: DoFxE=T DoFxN=F DoGrad=F DoDP/DQ/DG/TGxP=FFFF NFrqRd=   0 IEInf=0 SqF1=T DoCFld=F IF1Alg=4.
 End of G2Drv F.D. properties file   721 does not exist.
 End of G2Drv F.D. properties file   722 does not exist.
 End of G2Drv F.D. properties file   788 does not exist.
 Leave Link 1110 at Tue Jan 30 19:43:58 2024, MaxMem=  1073741824 cpu:             436.1 elap:              54.7
 (Enter /share/software/user/restricted/gaussian/g16.B01/l1002.exe)
 Minotr:  Closed shell wavefunction.
          IDoAtm=1111111111111111111
 NEqPCM:  Using equilibrium solvation (IEInf=0, Eps=  78.3553, EpsInf=   1.7778)
          Frozen-core window.
          Direct CPHF calculation.
          Differentiating once with respect to electric field.
                with respect to dipole field.
          Differentiating once with respect to nuclear coordinates.
          Requested convergence is 1.0D-08 RMS, and 1.0D-07 maximum.
          Secondary convergence is 1.0D-12 RMS, and 1.0D-12 maximum.
          NewPWx=T KeepS1=T KeepF1=T KeepIn=T MapXYZ=F SortEE=F KeepMc=T.
         5642 words used for storage of precomputed grid.
 Keep R1 ints in memory in canonical form, NReq=35726229.
 FoFCou: FMM=F IPFlag=           0 FMFlag=           0 FMFlg1=           0
         NFxFlg=           0 DoJE=F BraDBF=F KetDBF=F FulRan=T
         wScrn=  0.000000 ICntrl=       600 IOpCl=  0 I1Cent=           0 NGrid=           0
         NMat0=    1 NMatS0=   7503 NMatT0=    0 NMatD0=    1 NMtDS0=    0 NMtDT0=    0
 Symmetry not used in FoFCou.
 Two-electron integral symmetry not used.
          MDV=    1073741824 using IRadAn=       1.
          Solving linear equations simultaneously, MaxMat=       0.
          There are    60 degrees of freedom in the 1st order CPHF.  IDoFFX=6 NUNeed=    60.
     57 vectors produced by pass  0 Test12= 5.60D-15 1.67D-09 XBig12= 1.93D+02 8.22D+00.
 AX will form    57 AO Fock derivatives at one time.
     57 vectors produced by pass  1 Test12= 5.60D-15 1.67D-09 XBig12= 3.00D+01 1.47D+00.
     57 vectors produced by pass  2 Test12= 5.60D-15 1.67D-09 XBig12= 1.04D-01 4.44D-02.
     57 vectors produced by pass  3 Test12= 5.60D-15 1.67D-09 XBig12= 3.08D-04 2.20D-03.
     57 vectors produced by pass  4 Test12= 5.60D-15 1.67D-09 XBig12= 4.19D-07 6.21D-05.
     38 vectors produced by pass  5 Test12= 5.60D-15 1.67D-09 XBig12= 3.30D-10 2.36D-06.
      3 vectors produced by pass  6 Test12= 5.60D-15 1.67D-09 XBig12= 2.95D-13 8.05D-08.
 InvSVY:  IOpt=1 It=  1 EMax= 7.11D-15
 Solved reduced A of dimension   326 with    60 vectors.
 FullF1:  Do perturbations      1 to      60.
 Isotropic polarizability for W=    0.000000      116.33 Bohr**3.
 Saving first derivative matrices.
 End of Minotr F.D. properties file   721 does not exist.
 End of Minotr F.D. properties file   722 does not exist.
 End of Minotr F.D. properties file   788 does not exist.
 Leave Link 1002 at Tue Jan 30 19:44:15 2024, MaxMem=  1073741824 cpu:             137.2 elap:              17.3
 (Enter /share/software/user/restricted/gaussian/g16.B01/l1014.exe)
 This link is doing    60 degrees of freedom
 Form MO integral derivatives with frozen-active canonical formalism.
 CISSec: MDV=    1073733181
 Doing TD-HF/TD-DFT second derivatives, IDoFFX=6 IOneXC=4 IRadAn=         1.
 Frozen orbitals handled with amplitudes over full window.
 Frozen-core window:  NFC=  12 NFV=   0.
 Symmetry is being used.
 Keep R1, R2, and R3 ints in memory in canonical form, NReq=92077842.
 FoFCou: FMM=F IPFlag=           0 FMFlag=           0 FMFlg1=           0
         NFxFlg=           0 DoJE=F BraDBF=F KetDBF=F FulRan=T
         wScrn=  0.000000 ICntrl=       600 IOpCl=  0 I1Cent=           0 NGrid=           0
         NMat0=    1 NMatS0=   7503 NMatT0=    0 NMatD0=    1 NMtDS0=    0 NMtDT0=    0
 Symmetry not used in FoFCou.
 The selected state is a singlet.
 CISGrX: IGrad=3 NXY=2 DFT=T
 CISAX will form    60 AO SS matrices at one time.
 NMat=    60 NSing=    60 JSym2X= 0.
     57 vectors produced by pass  0 Test12= 8.00D-15 1.67D-09 XBig12= 8.97D+02 1.93D+01.
 AX will form    57 AO Fock derivatives at one time.
     57 vectors produced by pass  1 Test12= 8.00D-15 1.67D-09 XBig12= 2.31D+03 2.76D+01.
     57 vectors produced by pass  2 Test12= 8.00D-15 1.67D-09 XBig12= 5.25D+01 2.02D+00.
     57 vectors produced by pass  3 Test12= 8.00D-15 1.67D-09 XBig12= 2.35D-01 1.08D-01.
     57 vectors produced by pass  4 Test12= 8.00D-15 1.67D-09 XBig12= 4.31D-04 2.81D-03.
     39 vectors produced by pass  5 Test12= 8.00D-15 1.67D-09 XBig12= 4.70D-07 7.47D-05.
      5 vectors produced by pass  6 Test12= 8.00D-15 1.67D-09 XBig12= 6.10D-10 3.05D-06.
      2 vectors produced by pass  7 Test12= 8.00D-15 1.67D-09 XBig12= 6.32D-13 7.85D-08.
      1 vectors produced by pass  8 Test12= 8.00D-15 1.67D-09 XBig12= 8.25D-16 3.62D-09.
 InvSVY:  IOpt=1 It=  1 EMax= 2.79D-14
 Solved reduced A of dimension   332 with    60 vectors.
 Tx.T = -3.06D-06 for pert.     1
 Tx.T = -3.12D-07 for pert.    37
 Tx.T =  3.04D-07 for pert.    22
 Tx.T = -3.03D-07 for pert.    27
 Tx.T = -2.77D-07 for pert.    19
 Tx.T =  2.55D-07 for pert.    30
 Tx.T =  2.30D-07 for pert.    34
 Tx.T = -2.20D-07 for pert.     2
 Tx.T = -1.84D-07 for pert.    25
 Tx.T =  1.77D-07 for pert.    29
 SavDET:  read IOETrn=   770 NScale= 10 NData=  16 NLR=1 NState=    5 NDeriv=    0 LETran=     100.
 SavDET: write IOETrn=   770 NScale= 10 NData=  16 NLR=1 NState=    5 NDeriv=   60 LETran=    1060.
 TDDxLx will form    60 C1x/S1x matrices at one time.
 Interchange theorem applied.
 FoFJK:  IHMeth= 1 ICntrl=    5100 DoSepK=F KAlg= 0 I1Cent=           0 FoldK=F
 IRaf=         0 NMat=       1 IRICut=       1 DoRegI=T DoRafI=F ISym2E= 0 IDoP0=0 IntGTp=1.
 D1PCM: PCM CHGder 1st derivatives, ID1Alg=3 FixD1E=F DoIter=F DoCFld=F I1PDM=6.
 Leave Link 1014 at Tue Jan 30 19:44:53 2024, MaxMem=  1073741824 cpu:             294.3 elap:              37.1
 (Enter /share/software/user/restricted/gaussian/g16.B01/l601.exe)
 Copying SCF densities to generalized density rwf, IOpCl= 0 IROHF=0.

 **********************************************************************

            Population analysis using the SCF Density.

 **********************************************************************

 Orbital symmetries:
       Occupied  (A) (A) (A) (A) (A) (A) (A) (A) (A) (A) (A) (A)
                 (A) (A) (A) (A) (A) (A) (A) (A) (A) (A) (A) (A)
                 (A) (A) (A) (A) (A) (A) (A) (A) (A) (A) (A) (A)
                 (A) (A) (A) (A) (A) (A)
       Virtual   (A) (A) (A) (A) (A) (A) (A) (A) (A) (A) (A) (A)
                 (A) (A) (A) (A) (A) (A) (A) (A) (A) (A) (A) (A)
                 (A) (A) (A) (A) (A) (A) (A) (A) (A) (A) (A) (A)
                 (A) (A) (A) (A) (A) (A) (A) (A) (A) (A) (A) (A)
                 (A) (A) (A) (A) (A) (A) (A) (A) (A) (A) (A) (A)
                 (A) (A) (A) (A) (A) (A) (A) (A) (A) (A) (A) (A)
                 (A) (A) (A) (A) (A) (A) (A) (A)
 The electronic state is 1-A.
 Alpha  occ. eigenvalues --  -14.35915 -14.29846 -14.28309 -14.26299 -14.26032
 Alpha  occ. eigenvalues --  -10.20026 -10.16889 -10.16783 -10.16643 -10.16071
 Alpha  occ. eigenvalues --  -10.15245 -10.14334  -1.12601  -0.96086  -0.95016
 Alpha  occ. eigenvalues --   -0.90839  -0.83492  -0.80765  -0.77564  -0.67404
 Alpha  occ. eigenvalues --   -0.65097  -0.62376  -0.61308  -0.56881  -0.53188
 Alpha  occ. eigenvalues --   -0.50779  -0.49843  -0.48276  -0.47878  -0.47507
 Alpha  occ. eigenvalues --   -0.44576  -0.41149  -0.41052  -0.37650  -0.35249
 Alpha  occ. eigenvalues --   -0.33257  -0.31720  -0.29516  -0.28877  -0.26206
 Alpha  occ. eigenvalues --   -0.25580  -0.20872
 Alpha virt. eigenvalues --   -0.03497  -0.02537   0.01038   0.08199   0.10501
 Alpha virt. eigenvalues --    0.12447   0.12909   0.14801   0.15872   0.17200
 Alpha virt. eigenvalues --    0.18380   0.21121   0.23771   0.24097   0.26774
 Alpha virt. eigenvalues --    0.28285   0.30464   0.32057   0.32940   0.37737
 Alpha virt. eigenvalues --    0.38860   0.49642   0.50525   0.51248   0.56972
 Alpha virt. eigenvalues --    0.66896   0.68651   0.71210   0.71669   0.72391
 Alpha virt. eigenvalues --    0.74485   0.76102   0.77785   0.79358   0.80962
 Alpha virt. eigenvalues --    0.82116   0.83549   0.84802   0.85418   0.87336
 Alpha virt. eigenvalues --    0.90901   0.93160   0.94684   0.97306   0.98571
 Alpha virt. eigenvalues --    1.03105   1.04239   1.06854   1.08552   1.13547
 Alpha virt. eigenvalues --    1.14263   1.16023   1.18521   1.20375   1.20503
 Alpha virt. eigenvalues --    1.21865   1.22989   1.26030   1.27046   1.31109
 Alpha virt. eigenvalues --    1.33293   1.34803   1.35442   1.40208   1.43354
 Alpha virt. eigenvalues --    1.46306   1.49259   1.53538   1.58708   1.63474
 Alpha virt. eigenvalues --    1.72557   1.81316   1.90539   1.95831   2.03956
 Alpha virt. eigenvalues --    2.31633   2.66980   2.83625   2.91714   3.04672
          Condensed to atoms (all electrons):
               1          2          3          4          5          6
     1  N    7.038359   0.256093  -0.066521   0.003371   0.002573  -0.069243
     2  C    0.256093   4.904692   0.343889  -0.157344  -0.055731   0.270424
     3  N   -0.066521   0.343889   7.080549   0.206046  -0.111497  -0.054499
     4  N    0.003371  -0.157344   0.206046   6.817643   0.227118  -0.168116
     5  N    0.002573  -0.055731  -0.111497   0.227118   7.057485   0.345344
     6  C   -0.069243   0.270424  -0.054499  -0.168116   0.345344   5.289425
     7  C   -0.006576  -0.055906   0.005425   0.006247  -0.084994   0.250715
     8  C   -0.001895  -0.005689  -0.000075  -0.000037   0.001927  -0.073203
     9  C    0.000036   0.000054  -0.000000   0.000000  -0.000032   0.004930
    10  C   -0.000000  -0.000004  -0.000000   0.000000   0.000004   0.000457
    11  N    0.000000  -0.000013   0.000000  -0.000000   0.000028   0.004271
    12  C   -0.000030   0.003669   0.000007  -0.000080   0.000745  -0.048455
    13  H    0.326871  -0.031871  -0.001723  -0.000086  -0.000035   0.005487
    14  H    0.337223  -0.037343   0.002053  -0.000099   0.000110  -0.005812
    15  H   -0.000043   0.004882  -0.028490   0.327982  -0.028411   0.005308
    16  H    0.006893   0.000440  -0.000012   0.000000   0.000044  -0.008046
    17  H    0.000000   0.000000   0.000000  -0.000000   0.000000  -0.000030
    18  H    0.000000  -0.000000   0.000000   0.000000  -0.000000   0.000005
    19  H   -0.000003   0.000253   0.000009  -0.000086   0.005072   0.000191
               7          8          9         10         11         12
     1  N   -0.006576  -0.001895   0.000036  -0.000000   0.000000  -0.000030
     2  C   -0.055906  -0.005689   0.000054  -0.000004  -0.000013   0.003669
     3  N    0.005425  -0.000075  -0.000000  -0.000000   0.000000   0.000007
     4  N    0.006247  -0.000037   0.000000   0.000000  -0.000000  -0.000080
     5  N   -0.084994   0.001927  -0.000032   0.000004   0.000028   0.000745
     6  C    0.250715  -0.073203   0.004930   0.000457   0.004271  -0.048455
     7  C    5.509489   0.405018  -0.066502  -0.018121  -0.037874   0.289619
     8  C    0.405018   5.287758   0.411496  -0.098788  -0.037410  -0.085011
     9  C   -0.066502   0.411496   5.341935   0.350463  -0.051866  -0.027437
    10  C   -0.018121  -0.098788   0.350463   5.049127   0.408792  -0.122561
    11  N   -0.037874  -0.037410  -0.051866   0.408792   6.960406   0.400760
    12  C    0.289619  -0.085011  -0.027437  -0.122561   0.400760   5.101842
    13  H   -0.000163   0.000039  -0.000000   0.000000  -0.000000   0.000001
[...]
      4          7           0       -2.875029    1.306568    0.982608
      5          7           0       -1.477786    1.389313    1.268228
      6          6           0       -0.932577    0.577336    0.367989
      7          6           0        0.474040    0.236673    0.196800
      8          6           0        1.081868   -0.834480    0.998917
      9          6           0        2.436742   -1.088153    0.752390
     10          6           0        3.155293   -0.363464   -0.185831
     11          7           0        2.580265    0.695800   -0.955470
     12          6           0        1.281191    0.933002   -0.711044
     13          1           0       -2.644348   -1.175753   -1.989055
     14          1           0       -0.907450   -1.121430   -1.699977
     15          1           0       -3.560680    1.827189    1.522799
     16          1           0        0.506413   -1.383908    1.729455
     17          1           0        2.943362   -1.872043    1.310043
     18          1           0        4.202706   -0.566279   -0.373504
     19          1           0        0.824387    1.741710   -1.283977
 ---------------------------------------------------------------------
                    Distance matrix (angstroms):
                    1          2          3          4          5
     1  N    0.000000
     2  C    1.318340   0.000000
     3  N    2.379115   1.376531   0.000000
     4  N    3.391374   2.111289   1.341373   0.000000
     5  N    3.525464   2.259511   2.353109   1.428536   0.000000
     6  C    2.473194   1.460937   2.330557   2.163945   1.329283
     7  C    3.041951   2.573573   3.717989   3.602560   2.507222
     8  C    3.823323   3.516878   4.627758   4.499043   3.401413
     9  C    4.830054   4.735084   5.935015   5.831175   4.661271
    10  C    5.186095   5.183921   6.443017   6.365457   5.162551
    11  N    4.712220   4.665473   5.884124   5.821462   4.679057
    12  C    3.667825   3.423859   4.580086   4.503574   3.426032
    13  H    1.019859   2.050935   2.643522   3.878906   4.307009
    14  H    1.022411   2.019398   3.286779   4.118592   3.929294
    15  H    4.333855   3.092954   2.069293   1.016351   2.143593
    16  H    4.000006   3.609848   4.538260   4.385270   3.441007
    17  H    5.633172   5.583990   6.746232   6.638106   5.494064
    18  H    6.156247   6.238504   7.514375   7.445866   6.227970
    19  H    3.710973   3.418888   4.418842   4.360326   3.455132
                    6          7          8          9         10
     6  C    0.000000
     7  C    1.457370   0.000000
     8  C    2.539543   1.469766   0.000000
     9  C    3.778084   2.432291   1.400289   0.000000
    10  C    4.231134   2.774110   2.434045   1.386271   0.000000
    11  N    3.755747   2.444321   2.899410   2.473837   1.430049
    12  C    2.488288   1.400196   2.467324   2.749910   2.338575
    13  H    3.399873   4.061681   4.788437   5.774138   6.127582
    14  H    2.676362   2.711221   3.365079   4.147147   4.401480
    15  H    3.130918   4.535084   5.377005   6.712810   7.267921
    16  H    2.787608   2.230775   1.080141   2.183643   3.424352
    17  H    4.680793   3.432716   2.153717   1.087255   2.135032
    18  H    5.313077   3.856543   3.419810   2.158384   1.083249
    19  H    2.677999   2.140229   3.451761   3.841172   3.327282
                   11         12         13         14         15
    11  N    0.000000
    12  C    1.342983   0.000000
    13  H    5.645139   4.635732   0.000000
    14  H    4.002596   3.160511   1.761627   0.000000
    15  H    6.718115   5.406787   4.710674   5.110799   0.000000
    16  H    3.979305   3.453171   4.878313   3.718723   5.186048
    17  H    3.443574   3.836129   6.526206   4.944936   7.485462
    18  H    2.136314   3.301064   7.061416   5.308617   8.342351
    19  H    2.070013   1.091298   4.587031   3.371926   5.207121
                   16         17         18         19
    16  H    0.000000
    17  H    2.520496   0.000000
    18  H    4.330535   2.474934   0.000000
    19  H    4.353317   4.927292   4.191516   0.000000
 Stoichiometry    C7H7N5
 Framework group  C1[X(C7H7N5)]
 Deg. of freedom    51
 Full point group                 C1      NOp   1
 RotChk:  IX=0 Diff= 7.23D-15
 Largest Abelian subgroup         C1      NOp   1
 Largest concise Abelian subgroup C1      NOp   1
                         Standard orientation:                         
 ---------------------------------------------------------------------
 Center     Atomic      Atomic             Coordinates (Angstroms)
 Number     Number       Type             X           Y           Z
 ---------------------------------------------------------------------
      1          7           0        1.423617    1.989644    0.361626
      2          6           0        1.764896    0.735621    0.140321
      3          7           0        3.066673    0.292398    0.078940
      4          7           0        2.902868   -1.015438   -0.170088
      5          7           0        1.554550   -1.474608   -0.279240
      6          6           0        0.838660   -0.371994   -0.082423
      7          6           0       -0.611722   -0.233629   -0.048150
      8          6           0       -1.354502   -0.502659    1.191251
      9          6           0       -2.742690   -0.333252    1.120222
     10          6           0       -3.370662    0.056054   -0.052740
     11          7           0       -2.660685    0.298330   -1.270228
     12          6           0       -1.330317    0.131713   -1.193005
     13          1           0        2.117939    2.722543    0.506155
     14          1           0        0.430588    2.232262    0.380441
     15          1           0        3.691023   -1.649016   -0.271872
     16          1           0       -0.847309   -0.810844    2.093737
     17          1           0       -3.348467   -0.512057    2.005200
     18          1           0       -4.444830    0.187644   -0.100436
     19          1           0       -0.770084    0.306059   -2.113153
 ---------------------------------------------------------------------
 Rotational constants (GHZ):           2.2831443           0.5801706           0.5525565
 Leave Link  202 at Tue Jan 30 20:59:26 2024, MaxMem=  1073741824 cpu:               0.1 elap:               0.1
 (Enter /share/software/user/restricted/gaussian/g16.B01/l601.exe)
 Copying SCF densities to generalized density rwf, IOpCl= 0 IROHF=0.

 **********************************************************************

            Population analysis using the SCF Density.

 **********************************************************************

 Orbital symmetries:
       Occupied  (A) (A) (A) (A) (A) (A) (A) (A) (A) (A) (A) (A)
                 (A) (A) (A) (A) (A) (A) (A) (A) (A) (A) (A) (A)
                 (A) (A) (A) (A) (A) (A) (A) (A) (A) (A) (A) (A)
                 (A) (A) (A) (A) (A) (A)
       Virtual   (A) (A) (A) (A) (A) (A) (A) (A) (A) (A) (A) (A)
                 (A) (A) (A) (A) (A) (A) (A) (A) (A) (A) (A) (A)
                 (A) (A) (A) (A) (A) (A) (A) (A) (A) (A) (A) (A)
                 (A) (A) (A) (A) (A) (A) (A) (A) (A) (A) (A) (A)
                 (A) (A) (A) (A) (A) (A) (A) (A) (A) (A) (A) (A)
                 (A) (A) (A) (A) (A) (A) (A) (A) (A) (A) (A) (A)
                 (A) (A) (A) (A) (A) (A) (A) (A)
 The electronic state is 1-A.
 Alpha  occ. eigenvalues --  -14.34288 -14.29159 -14.27616 -14.27020 -14.26163
 Alpha  occ. eigenvalues --  -10.19728 -10.17869 -10.17534 -10.16834 -10.16608
 Alpha  occ. eigenvalues --  -10.16565 -10.14995  -1.08358  -0.94965  -0.93585
 Alpha  occ. eigenvalues --   -0.89711  -0.81885  -0.79704  -0.77223  -0.67212
 Alpha  occ. eigenvalues --   -0.64072  -0.62330  -0.59773  -0.56227  -0.53163
 Alpha  occ. eigenvalues --   -0.50739  -0.49913  -0.47758  -0.47535  -0.45315
 Alpha  occ. eigenvalues --   -0.44583  -0.42140  -0.40323  -0.37531  -0.34489
 Alpha  occ. eigenvalues --   -0.32390  -0.29528  -0.29187  -0.28364  -0.26969
 Alpha  occ. eigenvalues --   -0.26192  -0.19189
 Alpha virt. eigenvalues --   -0.04863  -0.01789  -0.00166   0.08190   0.09986
 Alpha virt. eigenvalues --    0.11503   0.12033   0.12809   0.15156   0.16306
 Alpha virt. eigenvalues --    0.17361   0.20316   0.20611   0.23572   0.26210
 Alpha virt. eigenvalues --    0.26608   0.29654   0.31808   0.34005   0.36210
 Alpha virt. eigenvalues --    0.37461   0.46426   0.47953   0.49370   0.55979
 Alpha virt. eigenvalues --    0.67046   0.67270   0.69776   0.70801   0.72047
 Alpha virt. eigenvalues --    0.73859   0.75055   0.77498   0.78296   0.79640
 Alpha virt. eigenvalues --    0.80231   0.82143   0.83577   0.84169   0.87740
 Alpha virt. eigenvalues --    0.90521   0.93044   0.93935   0.95786   0.97738
 Alpha virt. eigenvalues --    0.99193   1.04980   1.07712   1.08731   1.08873
 Alpha virt. eigenvalues --    1.11437   1.11921   1.17243   1.19721   1.20602
 Alpha virt. eigenvalues --    1.21762   1.21987   1.24339   1.25874   1.28539
 Alpha virt. eigenvalues --    1.31276   1.33763   1.34524   1.38042   1.42161
 Alpha virt. eigenvalues --    1.46867   1.51730   1.58573   1.61300   1.68890
 Alpha virt. eigenvalues --    1.72909   1.79205   1.90390   1.98381   2.02992
 Alpha virt. eigenvalues --    2.31529   2.63651   2.83607   2.88517   3.02310
          Condensed to atoms (all electrons):
               1          2          3          4          5          6
     1  N    7.082123   0.228918  -0.060744   0.003023   0.003025  -0.064144
     2  C    0.228918   4.885095   0.362691  -0.145732  -0.057543   0.277511
     3  N   -0.060744   0.362691   7.046907   0.191502  -0.096007  -0.046328
     4  N    0.003023  -0.145732   0.191502   6.791919   0.249947  -0.138481
     5  N    0.003025  -0.057543  -0.096007   0.249947   7.023155   0.347336
     6  C   -0.064144   0.277511  -0.046328  -0.138481   0.347336   5.276393
     7  C   -0.006751  -0.081489   0.003765   0.004362  -0.074121   0.262036
     8  C   -0.000143   0.000628   0.000002  -0.000010  -0.000270  -0.076549
     9  C   -0.000005   0.000010   0.000000   0.000000   0.000014   0.005146
    10  C    0.000001   0.000011  -0.000000   0.000000   0.000000   0.000470
    11  N   -0.000001   0.000000   0.000000   0.000000   0.000000   0.003901
    12  C   -0.000143   0.000190   0.000004  -0.000001  -0.000067  -0.058384
    13  H    0.334067  -0.025985  -0.001201  -0.000059  -0.000023   0.004243
    14  H    0.339479  -0.035065   0.002104  -0.000092   0.000169  -0.006742
    15  H   -0.000047   0.004720  -0.025969   0.326414  -0.021310   0.003568
    16  H   -0.000047   0.000376   0.000002  -0.000014   0.000094  -0.002521
    17  H    0.000000   0.000000  -0.000000  -0.000000  -0.000000  -0.000042
    18  H   -0.000000  -0.000000   0.000000   0.000000  -0.000000   0.000003
    19  H   -0.000106   0.000895   0.000004  -0.000020   0.000058   0.000024
               7          8          9         10         11         12
     1  N   -0.006751  -0.000143  -0.000005   0.000001  -0.000001  -0.000143
     2  C   -0.081489   0.000628   0.000010   0.000011   0.000000   0.000190
     3  N    0.003765   0.000002   0.000000  -0.000000   0.000000   0.000004
     4  N    0.004362  -0.000010   0.000000   0.000000   0.000000  -0.000001
     5  N   -0.074121  -0.000270   0.000014   0.000000   0.000000  -0.000067
     6  C    0.262036  -0.076549   0.005146   0.000470   0.003901  -0.058384
     7  C    5.469261   0.424937  -0.074737  -0.021163  -0.042250   0.307970
     8  C    0.424937   5.213029   0.399774  -0.086655  -0.028566  -0.069511
     9  C   -0.074737   0.399774   5.332329   0.355396  -0.045647  -0.019681
    10  C   -0.021163  -0.086655   0.355396   5.089646   0.396494  -0.116873
    11  N   -0.042250  -0.028566  -0.045647   0.396494   6.933785   0.396009
    12  C    0.307970  -0.069511  -0.019681  -0.116873   0.396009   5.066576
    13  H   -0.000133  -0.000003  -0.000000   0.000000  -0.000000  -0.000006
    14  H    0.006854   0.000852  -0.000015  -0.000036  -0.000010   0.001480
    15  H   -0.000060   0.000001  -0.000000   0.000000  -0.000000   0.000001
    16  H   -0.033284   0.391490  -0.032849   0.002534  -0.000078   0.002304
    17  H    0.003670  -0.037541   0.372476  -0.028144   0.002135   0.000132
    18  H   -0.000510   0.003431  -0.057981   0.391309  -0.036029   0.003737
    19  H   -0.073009   0.003406  -0.000800   0.004640  -0.043230   0.398173
              13         14         15         16         17         18
     1  N    0.334067   0.339479  -0.000047  -0.000047   0.000000  -0.000000
     2  C   -0.025985  -0.035065   0.004720   0.000376   0.000000  -0.000000
     3  N   -0.001201   0.002104  -0.025969   0.000002  -0.000000   0.000000
     4  N   -0.000059  -0.000092   0.326414  -0.000014  -0.000000   0.000000
     5  N   -0.000023   0.000169  -0.021310   0.000094  -0.000000  -0.000000
     6  C    0.004243  -0.006742   0.003568  -0.002521  -0.000042   0.000003
     7  C   -0.000133   0.006854  -0.000060  -0.033284   0.003670  -0.000510
     8  C   -0.000003   0.000852   0.000001   0.391490  -0.037541   0.003431
     9  C   -0.000000  -0.000015  -0.000000  -0.032849   0.372476  -0.057981
    10  C    0.000000  -0.000036   0.000000   0.002534  -0.028144   0.391309
    11  N   -0.000000  -0.000010  -0.000000  -0.000078   0.002135  -0.036029
    12  C   -0.000006   0.001480   0.000001   0.002304   0.000132   0.003737
    13  H    0.374782  -0.020826  -0.000001   0.000000   0.000000  -0.000000
    14  H   -0.020826   0.378395   0.000002   0.000005  -0.000000   0.000000
    15  H   -0.000001   0.000002   0.327712   0.000000   0.000000  -0.000000
    16  H    0.000000   0.000005   0.000000   0.441164  -0.002883  -0.000035
    17  H    0.000000  -0.000000   0.000000  -0.002883   0.466087  -0.001485
    18  H   -0.000000   0.000000  -0.000000  -0.000035  -0.001485   0.460999
    19  H   -0.000000   0.000069   0.000000  -0.000034   0.000006  -0.000012
              19
     1  N   -0.000106
     2  C    0.000895
     3  N    0.000004
     4  N   -0.000020
     5  N    0.000058
     6  C    0.000024
     7  C   -0.073009
     8  C    0.003406
     9  C   -0.000800
    10  C    0.004640
    11  N   -0.043230
    12  C    0.398173
    13  H   -0.000000
    14  H    0.000069
    15  H    0.000000
    16  H   -0.000034
    17  H    0.000006
    18  H   -0.000012
    19  H    0.481104
 Mulliken charges:
               1
     1  N   -0.858507
     2  C    0.584769
     3  N   -0.376732
     4  N   -0.282758
     5  N   -0.374458
     6  C    0.212560
     7  C   -0.075347
     8  C   -0.138303
     9  C   -0.233429
    10  C    0.012371
    11  N   -0.536513
    12  C    0.088090
    13  H    0.335145
    14  H    0.333377
    15  H    0.384968
    16  H    0.233775
    17  H    0.225589
    18  H    0.236572
    19  H    0.228831
 Sum of Mulliken charges =  -0.00000
 Mulliken charges with hydrogens summed into heavy atoms:
               1
     1  N   -0.189985
     2  C    0.584769
     3  N   -0.376732
     4  N    0.102210
     5  N   -0.374458
     6  C    0.212560
     7  C   -0.075347
     8  C    0.095472
     9  C   -0.007840
    10  C    0.248944
    11  N   -0.536513
    12  C    0.316921
 Electronic spatial extent (au):  <R**2>=           2079.3409
 Charge=             -0.0000 electrons
 Dipole moment (field-independent basis, Debye):
    X=             -0.1080    Y=              1.7964    Z=              3.1002  Tot=              3.5846
 Quadrupole moment (field-independent basis, Debye-Ang):
   XX=            -63.7494   YY=            -63.6063   ZZ=            -68.4590
   XY=             -1.1954   XZ=             -8.9383   YZ=              0.3340
 Traceless Quadrupole moment (field-independent basis, Debye-Ang):
   XX=              1.5222   YY=              1.6652   ZZ=             -3.1874
   XY=             -1.1954   XZ=             -8.9383   YZ=              0.3340
 Octapole moment (field-independent basis, Debye-Ang**2):
  XXX=              6.8119  YYY=             33.7427  ZZZ=             10.7160  XYY=             29.4348
  XXY=            -27.1527  XXZ=             22.6370  XZZ=              6.3764  YZZ=             -3.8493
  YYZ=              6.7318  XYZ=              3.9702
 Hexadecapole moment (field-independent basis, Debye-Ang**3):
 XXXX=          -1809.0438 YYYY=           -323.3577 ZZZZ=           -289.2758 XXXY=           -114.9830
 XXXZ=           -103.3513 YYYX=             25.8425 YYYZ=             18.0932 ZZZX=            -35.6176
 ZZZY=             -6.8872 XXYY=           -342.0000 XXZZ=           -414.0476 YYZZ=           -117.9619
 XXYZ=             16.4584 YYXZ=              6.8032 ZZXY=              9.8139
 N-N= 6.407085437650D+02 E-N=-2.541018008402D+03  KE= 5.369721146486D+02
 No NMR shielding tensors so no spin-rotation constants.
 Leave Link  601 at Tue Jan 30 20:59:27 2024, MaxMem=  1073741824 cpu:               0.9 elap:               0.2
 (Enter /share/software/user/restricted/gaussian/g16.B01/l9999.exe)
 Electronic transition elements 
                 1             2             3             4             5 
      1  -0.541523D+03 -0.541492D+03 -0.541472D+03 -0.541466D+03 -0.541443D+03
      2  -0.108340D+00  0.234778D+00 -0.116721D+00 -0.114120D+01 -0.171381D+00
      3  -0.239541D-01 -0.363435D-01 -0.106214D+00  0.339603D+00  0.968012D-02
      4  -0.276014D-01 -0.715057D-01 -0.147453D+00  0.215170D+00 -0.154392D+00
      5   0.994832D-02 -0.319764D-01  0.320374D-01  0.157303D+00  0.347904D-01
      6   0.459074D-02  0.477293D-02  0.565358D-01 -0.467157D-01  0.165176D-01
      7   0.446642D-02  0.802935D-02  0.640106D-01 -0.296326D-01  0.496009D-01
      8   0.338921D-01  0.566008D-01  0.671950D+00  0.117345D-01  0.396815D+00
      9  -0.288547D-01 -0.163954D+00 -0.680133D+00  0.116562D+00 -0.385783D+00
     10   0.783370D-01  0.191753D-01  0.403088D+00 -0.141012D+00  0.175364D+00
     11   0.466479D-01  0.108832D+00  0.274817D+00 -0.604926D+00  0.228054D+00
     12   0.742252D-02 -0.151748D-02  0.106889D+00  0.314353D-01  0.816941D-01
     13  -0.282734D-01 -0.289446D-01 -0.244343D+00  0.578259D-01 -0.132994D+00
     14   0.126958D-01 -0.284242D-01  0.323480D+00  0.219905D+00  0.107742D+00
     15   0.125551D-01 -0.834685D-02  0.308638D+00  0.197379D+00  0.143836D+00
     16  -0.175121D-01  0.423173D-02 -0.578452D-01 -0.578005D-01 -0.711376D-02
 1\1\GINC-SH02-14N05\FTS\RB3LYP TD-FC\3-21G*\C7H7N5\JENNXU23\30-Jan-202
 4\0\\#p b3lyp/3-21G* opt=(calcfc,ts,noeigen,maxcycle=1000) scrf=(solve
 nt=water) td=(singlets,nstates=5)\\4_top\\0,1\N,-1.8530293076,-0.82241
 42575,-1.4513948663\C,-2.0078583467,0.0187519843,-0.4481558698\N,-3.22
 75076885,0.501582196,-0.0308211064\N,-2.8750294693,1.306567625,0.98260
 82586\N,-1.4777860953,1.3893126602,1.2682284685\C,-0.9325766327,0.5773
 355286,0.3679885435\C,0.4740402571,0.2366726316,0.1968001417\C,1.08186
 80224,-0.8344795373,0.9989172791\C,2.4367417583,-1.0881526962,0.752390
 469\C,3.1552926953,-0.3634642121,-0.1858308542\N,2.5802651457,0.695799
 8148,-0.9554695161\C,1.2811907313,0.9330022054,-0.7110441493\H,-2.6443
 477681,-1.175753457,-1.9890551254\H,-0.9074499507,-1.1214300638,-1.699
 976662\H,-3.5606804765,1.8271886935,1.5227989824\H,0.5064130068,-1.383
 907872,1.729454686\H,2.9433617782,-1.8720429389,1.3100428496\H,4.20270
 55063,-0.5662785156,-0.3735044907\H,0.8243868337,1.7417102111,-1.28397
 70382\\Version=ES64L-G16RevB.01\State=1-A\HF=-541.6394772\RMSD=4.749e-
 09\RMSF=1.242e-05\Dipole=-6.0295977,-0.8389674,-0.7608312\PG=C01 [X(C7
 H7N5)]\\@


 WE DON'T KNOW ONE MILLIONTH OF ONE PERCENT ABOUT
 ANYTHING.
                                     T. A. EDISON.
 Job cpu time:       0 days  9 hours 50 minutes 49.8 seconds.
 Elapsed time:       0 days  1 hours 16 minutes  3.3 seconds.
 File lengths (MBytes):  RWF=    266 Int=      0 D2E=      0 Chk=     11 Scr=      1
 Normal termination of Gaussian 16 at Tue Jan 30 20:59:27 2024.
