 Entering Gaussian System, Link 0=g16
 Initial command:
 /share/software/user/restricted/gaussian/g16.B01/l1.exe "/scratch/users/jennxu23/SyntheMol_private/scripts/gaussian/Gau-5885.inp" -scrdir="/scratch/users/jennxu23/SyntheMol_private/scripts/gaussian/"
 Entering Link 1 = /share/software/user/restricted/gaussian/g16.B01/l1.exe PID=      5886.
  
 Copyright (c) 1988-2017, Gaussian, Inc.  All Rights Reserved.
  
 This is part of the Gaussian(R) 16 program.  It is based on
 the Gaussian(R) 09 system (copyright 2009, Gaussian, Inc.),
 the Gaussian(R) 03 system (copyright 2003, Gaussian, Inc.),
 the Gaussian(R) 98 system (copyright 1998, Gaussian, Inc.),
 the Gaussian(R) 94 system (copyright 1995, Gaussian, Inc.),
 the Gaussian 92(TM) system (copyright 1992, Gaussian, Inc.),
 the Gaussian 90(TM) system (copyright 1990, Gaussian, Inc.),
 the Gaussian 88(TM) system (copyright 1988, Gaussian, Inc.),
 the Gaussian 86(TM) system (copyright 1986, Carnegie Mellon
 University), and the Gaussian 82(TM) system (copyright 1983,
 Carnegie Mellon University). Gaussian is a federally registered
 trademark of Gaussian, Inc.
  
 This software contains proprietary and confidential information,
 including trade secrets, belonging to Gaussian, Inc.
  
 This software is provided under written license and may be
 used, copied, transmitted, or stored only in accord with that
 written license.
  
 The following legend is applicable only to US Government
 contracts under FAR:
  
                    RESTRICTED RIGHTS LEGEND
  
 Use, reproduction and disclosure by the US Government is
 subject to restrictions as set forth in subparagraphs (a)
 and (c) of the Commercial Computer Software - Restricted
 Rights clause in FAR 52.227-19.
  
 Gaussian, Inc.
 340 Quinnipiac St., Bldg. 40, Wallingford CT 06492
  
  
 ---------------------------------------------------------------
 Warning -- This program may not be used in any manner that
 competes with the business of Gaussian, Inc. or will provide
 assistance to any competitor of Gaussian, Inc.  The licensee
 of this program is prohibited from giving any competitor of
 Gaussian, Inc. access to this program.  By using this program,
 the user acknowledges that Gaussian, Inc. is engaged in the
 business of creating and licensing software in the field of
 computational chemistry and represents and warrants to the
 licensee that it is not a competitor of Gaussian, Inc. and that
 it will not use this program in any manner prohibited above.
 ---------------------------------------------------------------
  

 Cite this work as:
 Gaussian 16, Revision B.01,
 M. J. Frisch, G. W. Trucks, H. B. Schlegel, G. E. Scuseria, 
 M. A. Robb, J. R. Cheeseman, G. Scalmani, V. Barone, 
 G. A. Petersson, H. Nakatsuji, X. Li, M. Caricato, A. V. Marenich, 
 J. Bloino, B. G. Janesko, R. Gomperts, B. Mennucci, H. P. Hratchian, 
 J. V. Ortiz, A. F. Izmaylov, J. L. Sonnenberg, D. Williams-Young, 
 F. Ding, F. Lipparini, F. Egidi, J. Goings, B. Peng, A. Petrone, 
 T. Henderson, D. Ranasinghe, V. G. Zakrzewski, J. Gao, N. Rega, 
 G. Zheng, W. Liang, M. Hada, M. Ehara, K. Toyota, R. Fukuda, 
 J. Hasegawa, M. Ishida, T. Nakajima, Y. Honda, O. Kitao, H. Nakai, 
 T. Vreven, K. Throssell, J. A. Montgomery, Jr., J. E. Peralta, 
 F. Ogliaro, M. J. Bearpark, J. J. Heyd, E. N. Brothers, K. N. Kudin, 
 V. N. Staroverov, T. A. Keith, R. Kobayashi, J. Normand, 
 K. Raghavachari, A. P. Rendell, J. C. Burant, S. S. Iyengar, 
 J. Tomasi, M. Cossi, J. M. Millam, M. Klene, C. Adamo, R. Cammi, 
 J. W. Ochterski, R. L. Martin, K. Morokuma, O. Farkas, 
 J. B. Foresman, and D. J. Fox, Gaussian, Inc., Wallingford CT, 2016.
 
 ******************************************
 Gaussian 16:  ES64L-G16RevB.01 20-Dec-2017
                30-Jan-2024 
 ******************************************
 %Mem=8GB
 %CPU=8,10,12-15,17,19
 SetSPE:  set environment variable "MP_BIND" = "yes"
 SetSPE:  set environment variable "MP_BLIST" = "8,10,12,13,14,15,17,19"
 Will use up to    8 processors via shared memory.
 %GPUCPU=0=8
 Will use    1 GPUs:
 Thread  CPU   GPU
      0    8     0
      1   10    -1
      2   12    -1
      3   13    -1
      4   14    -1
      5   15    -1
      6   17    -1
      7   19    -1
 SetGPE:  set environment variable "MP_BIND" = "yes"
 SetGPE:  set environment variable "MP_BLIST" = "8,10,12,13,14,15,17,19"
 Properties for Device   0
 Minimum vector length:                              32
 Maximum vector length:                            1024
 Number of SMPs:                                     56
 Maximum number of threads per SMP:                2048
 Number of ASync Engines:                             2
 Memory:                                           1385447424
   1246902681 words of memory will be used on each GPU.
 ----------------------------------------------------------------------
 #p b3lyp/3-21G* opt=(calcfc,ts,noeigen,maxcycle=1000) scrf=(solvent=wa
 ter) td=(singlets,nstates=5)
 ----------------------------------------------------------------------
 1/5=1,6=1000,10=4,11=1,18=20,26=3,38=1/1,3;
 2/9=110,12=2,17=6,18=5,40=1/2;
 3/5=5,7=1,11=9,25=1,30=1,70=2201,71=2,72=1,74=-5,140=1/1,2,3,8;
 4//1;
 5/5=2,38=5,53=1/2;
 8/6=1,10=1,108=5/1;
 9/15=3,41=5,42=1,48=1,70=2/14;
 10/5=2004,20=4/2;
 11/6=1,8=1,12=-1,16=1,42=3/1,2,10;
 10/6=3,21=1/2,14;
 6/7=2,8=2,9=2,10=2/1;
 7/10=1,12=6,13=8,18=20,25=1,44=2/1,2,3,16;
 1/5=1,6=1000,10=4,11=1,18=20,26=3/3(2);
 2/9=110/2;
 99//99;
 2/9=110/2;
 3/5=5,7=1,11=9,25=1,30=1,70=2205,71=1,72=1,74=-5/1,2,3,8;
 4/5=5,16=3,69=1/1;
 5/5=2,38=5,53=1/2;
 8/6=1,10=1,108=5/1;
 9/15=2,41=5,42=1,48=1,49=4,70=2/14;
 10/5=4/2;
 7/12=6,13=5/1,2,3,16;
 1/5=1,6=1000,11=1,18=20,26=3/3(-8);
 2/9=110/2;
 6/7=2,8=2,9=2,10=2/1;
 99/9=10/99;
 Leave Link    1 at Tue Jan 30 20:59:45 2024, MaxMem=  1073741824 cpu:               5.7 elap:               0.8
 (Enter /share/software/user/restricted/gaussian/g16.B01/l101.exe)
 -----
 5_top
 -----
 Symbolic Z-matrix:
 Charge =  0 Multiplicity = 1
 C                    -3.84265   2.59348  -0.51839 
 N                    -2.91046   1.5361   -0.1945 
 C                    -1.55666   1.69873  -0.07193 
 C                    -0.9963    0.47512   0.24901 
 C                     0.42605   0.2807    0.45166 
 N                     0.87704  -0.88767   0.75334 
 N                     2.22171  -0.96467   0.86356 
 N                     2.74765  -1.72112   1.84991 
 N                     4.06897  -1.61675   1.8001 
 C                     4.38819  -0.85284   0.71601 
 C                     5.6402   -0.48012   0.20535 
 C                     5.68669   0.2874   -0.96465 
 C                     4.51231   0.66737  -1.61685 
 C                     3.25455   0.30844  -1.1174 
 C                     3.22854  -0.438     0.07093 
 C                    -2.07415  -0.46735   0.3208 
 C                    -2.15836  -1.84886   0.60239 
 C                    -3.40115  -2.4909    0.58991 
 C                    -4.5604   -1.77962   0.30206 
 C                    -4.51082  -0.41191   0.02088 
 C                    -3.2578    0.2233    0.03634 
 H                    -4.55651   2.68906   0.30374 
 H                    -4.35377   2.331    -1.44816 
 H                    -3.30016   3.53351  -0.6477 
 H                    -1.09853   2.66842  -0.21907 
 H                     1.05771   1.18255   0.35323 
 H                     6.55027  -0.79572   0.70463 
 H                     6.65118   0.57728  -1.37642 
 H                     4.57625   1.24718  -2.53629 
 H                     2.34812   0.58732  -1.64443 
 H                    -1.26155  -2.41843   0.83295 
 H                    -3.45582  -3.55418   0.80956 
 H                    -5.51866  -2.29365   0.29756 
 H                    -5.42167   0.13482  -0.20043 
 
 ITRead=  0  0  0  0  0  0  0  0  0  0  0  0  0  0  0  0  0  0  0  0
 ITRead=  0  0  0  0  0  0  0  0  0  0  0  0  0  0
 MicOpt= -1 -1 -1 -1 -1 -1 -1 -1 -1 -1 -1 -1 -1 -1 -1 -1 -1 -1 -1 -1
 MicOpt= -1 -1 -1 -1 -1 -1 -1 -1 -1 -1 -1 -1 -1 -1
 NAtoms=     34 NQM=       34 NQMF=       0 NMMI=      0 NMMIF=      0
                NMic=       0 NMicF=      0.
                    Isotopes and Nuclear Properties:
 (Nuclear quadrupole moments (NQMom) in fm**2, nuclear magnetic moments (NMagM)
  in nuclear magnetons)

  Atom         1           2           3           4           5           6           7           8           9          10
 IAtWgt=          12          14          12          12          12          14          14          14          14          12
 AtmWgt=  12.0000000  14.0030740  12.0000000  12.0000000  12.0000000  14.0030740  14.0030740  14.0030740  14.0030740  12.0000000
 NucSpn=           0           2           0           0           0           2           2           2           2           0
 AtZEff=  -0.0000000  -0.0000000  -0.0000000  -0.0000000  -0.0000000  -0.0000000  -0.0000000  -0.0000000  -0.0000000  -0.0000000
 NQMom=    0.0000000   2.0440000   0.0000000   0.0000000   0.0000000   2.0440000   2.0440000   2.0440000   2.0440000   0.0000000
 NMagM=    0.0000000   0.4037610   0.0000000   0.0000000   0.0000000   0.4037610   0.4037610   0.4037610   0.4037610   0.0000000
 AtZNuc=   6.0000000   7.0000000   6.0000000   6.0000000   6.0000000   7.0000000   7.0000000   7.0000000   7.0000000   6.0000000

  Atom        11          12          13          14          15          16          17          18          19          20
 IAtWgt=          12          12          12          12          12          12          12          12          12          12
 AtmWgt=  12.0000000  12.0000000  12.0000000  12.0000000  12.0000000  12.0000000  12.0000000  12.0000000  12.0000000  12.0000000
 NucSpn=           0           0           0           0           0           0           0           0           0           0
 AtZEff=  -0.0000000  -0.0000000  -0.0000000  -0.0000000  -0.0000000  -0.0000000  -0.0000000  -0.0000000  -0.0000000  -0.0000000
 NQMom=    0.0000000   0.0000000   0.0000000   0.0000000   0.0000000   0.0000000   0.0000000   0.0000000   0.0000000   0.0000000
 NMagM=    0.0000000   0.0000000   0.0000000   0.0000000   0.0000000   0.0000000   0.0000000   0.0000000   0.0000000   0.0000000
 AtZNuc=   6.0000000   6.0000000   6.0000000   6.0000000   6.0000000   6.0000000   6.0000000   6.0000000   6.0000000   6.0000000

  Atom        21          22          23          24          25          26          27          28          29          30
 IAtWgt=          12           1           1           1           1           1           1           1           1           1
 AtmWgt=  12.0000000   1.0078250   1.0078250   1.0078250   1.0078250   1.0078250   1.0078250   1.0078250   1.0078250   1.0078250
 NucSpn=           0           1           1           1           1           1           1           1           1           1
 AtZEff=  -0.0000000  -0.0000000  -0.0000000  -0.0000000  -0.0000000  -0.0000000  -0.0000000  -0.0000000  -0.0000000  -0.0000000
 NQMom=    0.0000000   0.0000000   0.0000000   0.0000000   0.0000000   0.0000000   0.0000000   0.0000000   0.0000000   0.0000000
 NMagM=    0.0000000   2.7928460   2.7928460   2.7928460   2.7928460   2.7928460   2.7928460   2.7928460   2.7928460   2.7928460
 AtZNuc=   6.0000000   1.0000000   1.0000000   1.0000000   1.0000000   1.0000000   1.0000000   1.0000000   1.0000000   1.0000000

  Atom        31          32          33          34
 IAtWgt=           1           1           1           1
 AtmWgt=   1.0078250   1.0078250   1.0078250   1.0078250
 NucSpn=           1           1           1           1
 AtZEff=  -0.0000000  -0.0000000  -0.0000000  -0.0000000
 NQMom=    0.0000000   0.0000000   0.0000000   0.0000000
 NMagM=    2.7928460   2.7928460   2.7928460   2.7928460
 AtZNuc=   1.0000000   1.0000000   1.0000000   1.0000000
 Leave Link  101 at Tue Jan 30 20:59:46 2024, MaxMem=  1073741824 cpu:               3.7 elap:               0.5
 (Enter /share/software/user/restricted/gaussian/g16.B01/l103.exe)

 GradGradGradGradGradGradGradGradGradGradGradGradGradGradGradGradGradGrad
 Berny optimization.
 Initialization pass.
                           ----------------------------
                           !    Initial Parameters    !
                           ! (Angstroms and Degrees)  !
 --------------------------                            --------------------------
 ! Name  Definition              Value          Derivative Info.                !
 --------------------------------------------------------------------------------
 ! R1    R(1,2)                  1.4464         calculate D2E/DX2 analytically  !
 ! R2    R(1,22)                 1.093          calculate D2E/DX2 analytically  !
 ! R3    R(1,23)                 1.093          calculate D2E/DX2 analytically  !
 ! R4    R(1,24)                 1.093          calculate D2E/DX2 analytically  !
 ! R5    R(2,3)                  1.369          calculate D2E/DX2 analytically  !
 ! R6    R(2,21)                 1.3775         calculate D2E/DX2 analytically  !
 ! R7    R(3,4)                  1.3836         calculate D2E/DX2 analytically  !
 ! R8    R(3,25)                 1.0825         calculate D2E/DX2 analytically  !
 ! R9    R(4,5)                  1.4498         calculate D2E/DX2 analytically  !
 ! R10   R(4,16)                 1.4336         calculate D2E/DX2 analytically  !
 ! R11   R(5,6)                  1.2882         calculate D2E/DX2 analytically  !
 ! R12   R(5,26)                 1.1054         calculate D2E/DX2 analytically  !
 ! R13   R(6,7)                  1.3514         calculate D2E/DX2 analytically  !
 ! R14   R(7,8)                  1.3497         calculate D2E/DX2 analytically  !
 ! R15   R(7,15)                 1.3854         calculate D2E/DX2 analytically  !
 ! R16   R(8,9)                  1.3264         calculate D2E/DX2 analytically  !
 ! R17   R(9,10)                 1.3641         calculate D2E/DX2 analytically  !
 ! R18   R(10,11)                1.4026         calculate D2E/DX2 analytically  !
 ! R19   R(10,15)                1.3903         calculate D2E/DX2 analytically  !
 ! R20   R(11,12)                1.4001         calculate D2E/DX2 analytically  !
 ! R21   R(11,27)                1.0849         calculate D2E/DX2 analytically  !
 ! R22   R(12,13)                1.396          calculate D2E/DX2 analytically  !
 ! R23   R(12,28)                1.088          calculate D2E/DX2 analytically  !
 ! R24   R(13,14)                1.4001         calculate D2E/DX2 analytically  !
 ! R25   R(13,29)                1.0889         calculate D2E/DX2 analytically  !
 ! R26   R(14,15)                1.4036         calculate D2E/DX2 analytically  !
 ! R27   R(14,30)                1.085          calculate D2E/DX2 analytically  !
 ! R28   R(16,17)                1.4124         calculate D2E/DX2 analytically  !
 ! R29   R(16,21)                1.3996         calculate D2E/DX2 analytically  !
 ! R30   R(17,18)                1.3989         calculate D2E/DX2 analytically  !
 ! R31   R(17,31)                1.0871         calculate D2E/DX2 analytically  !
 ! R32   R(18,19)                1.3902         calculate D2E/DX2 analytically  !
 ! R33   R(18,32)                1.0871         calculate D2E/DX2 analytically  !
 ! R34   R(19,20)                1.3972         calculate D2E/DX2 analytically  !
 ! R35   R(19,33)                1.0874         calculate D2E/DX2 analytically  !
 ! R36   R(20,21)                1.4049         calculate D2E/DX2 analytically  !
 ! R37   R(20,34)                1.0851         calculate D2E/DX2 analytically  !
 ! A1    A(2,1,22)             108.4477         calculate D2E/DX2 analytically  !
 ! A2    A(2,1,23)             108.4407         calculate D2E/DX2 analytically  !
 ! A3    A(2,1,24)             109.5934         calculate D2E/DX2 analytically  !
 ! A4    A(22,1,23)            110.8208         calculate D2E/DX2 analytically  !
 ! A5    A(22,1,24)            109.7518         calculate D2E/DX2 analytically  !
 ! A6    A(23,1,24)            109.7546         calculate D2E/DX2 analytically  !
 ! A7    A(1,2,3)              124.7886         calculate D2E/DX2 analytically  !
 ! A8    A(1,2,21)             124.8727         calculate D2E/DX2 analytically  !
 ! A9    A(3,2,21)             110.3386         calculate D2E/DX2 analytically  !
 ! A10   A(2,3,4)              108.4343         calculate D2E/DX2 analytically  !
 ! A11   A(2,3,25)             120.8468         calculate D2E/DX2 analytically  !
 ! A12   A(4,3,25)             130.7186         calculate D2E/DX2 analytically  !
 ! A13   A(3,4,5)              123.2548         calculate D2E/DX2 analytically  !
 ! A14   A(3,4,16)             106.7697         calculate D2E/DX2 analytically  !
 ! A15   A(5,4,16)             129.9753         calculate D2E/DX2 analytically  !
 ! A16   A(4,5,6)              119.856          calculate D2E/DX2 analytically  !
 ! A17   A(4,5,26)             116.0238         calculate D2E/DX2 analytically  !
 ! A18   A(6,5,26)             124.1059         calculate D2E/DX2 analytically  !
 ! A19   A(5,6,7)              114.7801         calculate D2E/DX2 analytically  !
 ! A20   A(6,7,8)              118.6379         calculate D2E/DX2 analytically  !
 ! A21   A(6,7,15)             130.905          calculate D2E/DX2 analytically  !
 ! A22   A(8,7,15)             110.3638         calculate D2E/DX2 analytically  !
 ! A23   A(7,8,9)              108.46           calculate D2E/DX2 analytically  !
 ! A24   A(8,9,10)             107.8805         calculate D2E/DX2 analytically  !
 ! A25   A(9,10,11)            130.321          calculate D2E/DX2 analytically  !
 ! A26   A(9,10,15)            109.9162         calculate D2E/DX2 analytically  !
 ! A27   A(11,10,15)           119.7574         calculate D2E/DX2 analytically  !
 ! A28   A(10,11,12)           118.6579         calculate D2E/DX2 analytically  !
 ! A29   A(10,11,27)           120.2591         calculate D2E/DX2 analytically  !
 ! A30   A(12,11,27)           121.0775         calculate D2E/DX2 analytically  !
 ! A31   A(11,12,13)           120.7767         calculate D2E/DX2 analytically  !
 ! A32   A(11,12,28)           119.4554         calculate D2E/DX2 analytically  !
 ! A33   A(13,12,28)           119.7616         calculate D2E/DX2 analytically  !
 ! A34   A(12,13,14)           121.2838         calculate D2E/DX2 analytically  !
 ! A35   A(12,13,29)           119.3413         calculate D2E/DX2 analytically  !
 ! A36   A(14,13,29)           119.373          calculate D2E/DX2 analytically  !
 ! A37   A(13,14,15)           117.0658         calculate D2E/DX2 analytically  !
 ! A38   A(13,14,30)           120.7529         calculate D2E/DX2 analytically  !
 ! A39   A(15,14,30)           122.1736         calculate D2E/DX2 analytically  !
 ! A40   A(7,15,10)            103.1369         calculate D2E/DX2 analytically  !
 ! A41   A(7,15,14)            134.4301         calculate D2E/DX2 analytically  !
 ! A42   A(10,15,14)           122.4153         calculate D2E/DX2 analytically  !
 ! A43   A(4,16,17)            134.2541         calculate D2E/DX2 analytically  !
 ! A44   A(4,16,21)            107.5333         calculate D2E/DX2 analytically  !
 ! A45   A(17,16,21)           118.2127         calculate D2E/DX2 analytically  !
 ! A46   A(16,17,18)           120.0072         calculate D2E/DX2 analytically  !
 ! A47   A(16,17,31)           120.3685         calculate D2E/DX2 analytically  !
 ! A48   A(18,17,31)           119.6239         calculate D2E/DX2 analytically  !
 ! A49   A(17,18,19)           120.5201         calculate D2E/DX2 analytically  !
 ! A50   A(17,18,32)           119.4582         calculate D2E/DX2 analytically  !
 ! A51   A(19,18,32)           120.0216         calculate D2E/DX2 analytically  !
 ! A52   A(18,19,20)           120.8591         calculate D2E/DX2 analytically  !
 ! A53   A(18,19,33)           119.5921         calculate D2E/DX2 analytically  !
 ! A54   A(20,19,33)           119.5487         calculate D2E/DX2 analytically  !
 ! A55   A(19,20,21)           118.1656         calculate D2E/DX2 analytically  !
 ! A56   A(19,20,34)           120.2953         calculate D2E/DX2 analytically  !
 ! A57   A(21,20,34)           121.5391         calculate D2E/DX2 analytically  !
 ! A58   A(2,21,16)            106.9236         calculate D2E/DX2 analytically  !
 ! A59   A(2,21,20)            130.841          calculate D2E/DX2 analytically  !
 ! A60   A(16,21,20)           122.2352         calculate D2E/DX2 analytically  !
 ! D1    D(22,1,2,3)          -119.8344         calculate D2E/DX2 analytically  !
 ! D2    D(22,1,2,21)           60.0679         calculate D2E/DX2 analytically  !
 ! D3    D(23,1,2,3)           119.7536         calculate D2E/DX2 analytically  !
 ! D4    D(23,1,2,21)          -60.3441         calculate D2E/DX2 analytically  !
 ! D5    D(24,1,2,3)            -0.04           calculate D2E/DX2 analytically  !
 ! D6    D(24,1,2,21)          179.8624         calculate D2E/DX2 analytically  !
 ! D7    D(1,2,3,4)            179.7526         calculate D2E/DX2 analytically  !
 ! D8    D(1,2,3,25)            -0.0781         calculate D2E/DX2 analytically  !
 ! D9    D(21,2,3,4)            -0.162          calculate D2E/DX2 analytically  !
 ! D10   D(21,2,3,25)         -179.9927         calculate D2E/DX2 analytically  !
 ! D11   D(1,2,21,16)         -179.6885         calculate D2E/DX2 analytically  !
 ! D12   D(1,2,21,20)            0.192          calculate D2E/DX2 analytically  !
 ! D13   D(3,2,21,16)            0.226          calculate D2E/DX2 analytically  !
 ! D14   D(3,2,21,20)         -179.8935         calculate D2E/DX2 analytically  !
 ! D15   D(2,3,4,5)            179.8812         calculate D2E/DX2 analytically  !
 ! D16   D(2,3,4,16)             0.0319         calculate D2E/DX2 analytically  !
 ! D17   D(25,3,4,5)            -0.3106         calculate D2E/DX2 analytically  !
 ! D18   D(25,3,4,16)          179.8401         calculate D2E/DX2 analytically  !
 ! D19   D(3,4,5,6)            179.7609         calculate D2E/DX2 analytically  !
 ! D20   D(3,4,5,26)             1.0822         calculate D2E/DX2 analytically  !
 ! D21   D(16,4,5,6)            -0.4274         calculate D2E/DX2 analytically  !
 ! D22   D(16,4,5,26)         -179.1061         calculate D2E/DX2 analytically  !
 ! D23   D(3,4,16,17)         -179.86           calculate D2E/DX2 analytically  !
 ! D24   D(3,4,16,21)            0.105          calculate D2E/DX2 analytically  !
 ! D25   D(5,4,16,17)            0.3045         calculate D2E/DX2 analytically  !
 ! D26   D(5,4,16,21)         -179.7305         calculate D2E/DX2 analytically  !
 ! D27   D(4,5,6,7)            177.3464         calculate D2E/DX2 analytically  !
 ! D28   D(26,5,6,7)            -4.0876         calculate D2E/DX2 analytically  !
 ! D29   D(5,6,7,8)            140.514          calculate D2E/DX2 analytically  !
 ! D30   D(5,6,7,15)           -43.373          calculate D2E/DX2 analytically  !
 ! D31   D(6,7,8,9)           -177.8967         calculate D2E/DX2 analytically  !
 ! D32   D(15,7,8,9)             5.2361         calculate D2E/DX2 analytically  !
 ! D33   D(6,7,15,10)          179.3381         calculate D2E/DX2 analytically  !
 ! D34   D(6,7,15,14)           -2.2314         calculate D2E/DX2 analytically  !
 ! D35   D(8,7,15,10)           -4.3005         calculate D2E/DX2 analytically  !
 ! D36   D(8,7,15,14)          174.13           calculate D2E/DX2 analytically  !
 ! D37   D(7,8,9,10)            -3.8575         calculate D2E/DX2 analytically  !
 ! D38   D(8,9,10,11)         -177.9925         calculate D2E/DX2 analytically  !
 ! D39   D(8,9,10,15)            1.1478         calculate D2E/DX2 analytically  !
 ! D40   D(9,10,11,12)         177.9587         calculate D2E/DX2 analytically  !
 ! D41   D(9,10,11,27)          -1.1952         calculate D2E/DX2 analytically  !
 ! D42   D(15,10,11,12)         -1.1102         calculate D2E/DX2 analytically  !
 ! D43   D(15,10,11,27)        179.7359         calculate D2E/DX2 analytically  !
 ! D44   D(9,10,15,7)            1.9039         calculate D2E/DX2 analytically  !
 ! D45   D(9,10,15,14)        -176.7684         calculate D2E/DX2 analytically  !
 ! D46   D(11,10,15,7)        -178.8511         calculate D2E/DX2 analytically  !
 ! D47   D(11,10,15,14)          2.4765         calculate D2E/DX2 analytically  !
 ! D48   D(10,11,12,13)         -0.444          calculate D2E/DX2 analytically  !
 ! D49   D(10,11,12,28)       -179.5306         calculate D2E/DX2 analytically  !
 ! D50   D(27,11,12,13)        178.7026         calculate D2E/DX2 analytically  !
 ! D51   D(27,11,12,28)         -0.3839         calculate D2E/DX2 analytically  !
 ! D52   D(11,12,13,14)          0.724          calculate D2E/DX2 analytically  !
 ! D53   D(11,12,13,29)       -178.7661         calculate D2E/DX2 analytically  !
 ! D54   D(28,12,13,14)        179.8077         calculate D2E/DX2 analytically  !
 ! D55   D(28,12,13,29)          0.3176         calculate D2E/DX2 analytically  !
 ! D56   D(12,13,14,15)          0.545          calculate D2E/DX2 analytically  !
 ! D57   D(12,13,14,30)       -178.4721         calculate D2E/DX2 analytically  !
 ! D58   D(29,13,14,15)       -179.9651         calculate D2E/DX2 analytically  !
 ! D59   D(29,13,14,30)          1.0178         calculate D2E/DX2 analytically  !
 ! D60   D(13,14,15,7)         179.6525         calculate D2E/DX2 analytically  !
 ! D61   D(13,14,15,10)         -2.1581         calculate D2E/DX2 analytically  !
 ! D62   D(30,14,15,7)          -1.3454         calculate D2E/DX2 analytically  !
 ! D63   D(30,14,15,10)        176.8439         calculate D2E/DX2 analytically  !
 ! D64   D(4,16,17,18)        -179.9347         calculate D2E/DX2 analytically  !
 ! D65   D(4,16,17,31)           0.2754         calculate D2E/DX2 analytically  !
 ! D66   D(21,16,17,18)          0.1032         calculate D2E/DX2 analytically  !
 ! D67   D(21,16,17,31)       -179.6867         calculate D2E/DX2 analytically  !
 ! D68   D(4,16,21,2)           -0.2            calculate D2E/DX2 analytically  !
 ! D69   D(4,16,21,20)         179.907          calculate D2E/DX2 analytically  !
 ! D70   D(17,16,21,2)         179.7716         calculate D2E/DX2 analytically  !
 ! D71   D(17,16,21,20)         -0.1215         calculate D2E/DX2 analytically  !
 ! D72   D(16,17,18,19)         -0.0158         calculate D2E/DX2 analytically  !
 ! D73   D(16,17,18,32)       -179.8993         calculate D2E/DX2 analytically  !
 ! D74   D(31,17,18,19)        179.7758         calculate D2E/DX2 analytically  !
 ! D75   D(31,17,18,32)         -0.1077         calculate D2E/DX2 analytically  !
 ! D76   D(17,18,19,20)         -0.0591         calculate D2E/DX2 analytically  !
 ! D77   D(17,18,19,33)       -179.9342         calculate D2E/DX2 analytically  !
 ! D78   D(32,18,19,20)        179.8238         calculate D2E/DX2 analytically  !
 ! D79   D(32,18,19,33)         -0.0513         calculate D2E/DX2 analytically  !
 ! D80   D(18,19,20,21)          0.0426         calculate D2E/DX2 analytically  !
 ! D81   D(18,19,20,34)       -179.8625         calculate D2E/DX2 analytically  !
 ! D82   D(33,19,20,21)        179.9177         calculate D2E/DX2 analytically  !
 ! D83   D(33,19,20,34)          0.0127         calculate D2E/DX2 analytically  !
 ! D84   D(19,20,21,2)        -179.8153         calculate D2E/DX2 analytically  !
 ! D85   D(19,20,21,16)          0.0495         calculate D2E/DX2 analytically  !
 ! D86   D(34,20,21,2)           0.0885         calculate D2E/DX2 analytically  !
 ! D87   D(34,20,21,16)        179.9533         calculate D2E/DX2 analytically  !
 --------------------------------------------------------------------------------
 Trust Radius=3.00D-01 FncErr=1.00D-07 GrdErr=1.00D-06 EigMax=2.50D+02 EigMin=1.00D-04
 Number of steps in this run=    204 maximum allowed number of steps=    204.
 Search for a saddle point of order  1.
 GradGradGradGradGradGradGradGradGradGradGradGradGradGradGradGradGradGrad

 Leave Link  103 at Tue Jan 30 20:59:46 2024, MaxMem=  1073741824 cpu:               0.2 elap:               0.1
 (Enter /share/software/user/restricted/gaussian/g16.B01/l202.exe)
                          Input orientation:                          
 ---------------------------------------------------------------------
 Center     Atomic      Atomic             Coordinates (Angstroms)
 Number     Number       Type             X           Y           Z
 ---------------------------------------------------------------------
      1          6           0       -3.842655    2.593478   -0.518388
      2          7           0       -2.910458    1.536104   -0.194504
      3          6           0       -1.556662    1.698733   -0.071931
      4          6           0       -0.996302    0.475120    0.249006
      5          6           0        0.426047    0.280701    0.451658
      6          7           0        0.877045   -0.887666    0.753337
      7          7           0        2.221714   -0.964667    0.863558
      8          7           0        2.747652   -1.721123    1.849907
      9          7           0        4.068972   -1.616754    1.800104
     10          6           0        4.388191   -0.852835    0.716012
     11          6           0        5.640205   -0.480119    0.205347
     12          6           0        5.686688    0.287403   -0.964653
     13          6           0        4.512305    0.667375   -1.616850
     14          6           0        3.254545    0.308440   -1.117398
     15          6           0        3.228535   -0.437996    0.070932
     16          6           0       -2.074147   -0.467346    0.320796
     17          6           0       -2.158357   -1.848856    0.602385
     18          6           0       -3.401149   -2.490903    0.589914
     19          6           0       -4.560400   -1.779618    0.302061
     20          6           0       -4.510823   -0.411908    0.020880
     21          6           0       -3.257801    0.223296    0.036341
     22          1           0       -4.556509    2.689056    0.303740
     23          1           0       -4.353767    2.330998   -1.448162
     24          1           0       -3.300163    3.533506   -0.647703
     25          1           0       -1.098531    2.668420   -0.219073
     26          1           0        1.057714    1.182547    0.353233
     27          1           0        6.550266   -0.795721    0.704632
     28          1           0        6.651180    0.577275   -1.376417
     29          1           0        4.576255    1.247184   -2.536293
     30          1           0        2.348116    0.587315   -1.644433
     31          1           0       -1.261551   -2.418431    0.832949
     32          1           0       -3.455824   -3.554176    0.809557
     33          1           0       -5.518661   -2.293651    0.297563
     34          1           0       -5.421671    0.134819   -0.200430
 ---------------------------------------------------------------------
                    Distance matrix (angstroms):
                    1          2          3          4          5
     1  C    0.000000
     2  N    1.446351   0.000000
     3  C    2.495126   1.369028   0.000000
     4  C    3.630160   2.233021   1.383558   0.000000
     5  C    4.950934   3.622959   2.493210   1.449808   0.000000
     6  N    6.000934   4.595459   3.646019   2.370857   1.288212
     7  N    7.165664   5.806250   4.716457   3.578587   2.223741
     8  N    8.225372   6.841298   5.823744   4.626398   3.369310
     9  N    9.257176   7.914002   6.792991   5.695511   4.323141
    10  C    9.008199   7.733457   6.517103   5.565458   4.129573
    11  C    9.994769   8.794252   7.524571   6.705043   5.275126
    12  C    9.814556   8.721428   7.433365   6.794892   5.447964
    13  C    8.644180   7.607573   6.346876   5.819204   4.596275
    14  C    7.480004   6.353437   5.116017   4.468170   3.234673
    15  C    7.716143   6.454051   5.242531   4.326054   2.918119
    16  C    3.633249   2.231315   2.261399   1.433578   2.612981
    17  C    4.881324   3.557899   3.660891   2.622234   3.352145
    18  C    5.222469   4.131933   4.625280   3.833640   4.727403
    19  C    4.506912   3.736696   4.610990   4.217754   5.397402
    20  C    3.125636   2.530278   3.631871   3.631903   5.003795
    21  C    2.503505   1.377462   2.254442   2.285393   3.707631
    22  H    1.092986   2.070514   3.181344   4.192801   5.536056
    23  H    1.092983   2.070424   3.180812   4.194906   5.537116
    24  H    1.093011   2.084916   2.595709   3.932632   5.066950
    25  H    2.761416   2.136779   1.082510   2.245020   2.911258
    26  H    5.173400   4.021370   2.698551   2.174925   1.105448
    27  H   10.999784   9.785252   8.517490   7.666376   6.223241
    28  H   10.720161   9.682004   8.386180   7.818978   6.494774
    29  H    8.761420   7.849734   6.624926   6.277528   5.204436
    30  H    6.604416   5.536704   4.353768   3.844844   2.860411
    31  H    5.797193   4.406008   4.225747   2.963779   3.206039
    32  H    6.301328   5.216945   5.654811   4.753808   5.468391
    33  H    5.230564   4.659600   5.636762   5.302846   6.480015
    34  H    2.939285   2.875731   4.171407   4.461131   5.885772
                    6          7          8          9         10
     6  N    0.000000
     7  N    1.351375   0.000000
     8  N    2.322991   1.349711   0.000000
     9  N    3.437396   2.171336   1.326371   0.000000
    10  C    3.511518   2.174373   2.175089   1.364086   0.000000
    11  C    4.811869   3.514841   3.551271   2.510769   1.402581
    12  C    5.240700   4.112916   4.538045   3.726486   2.410574
    13  C    4.609887   3.750039   4.564792   4.133929   2.787236
    14  C    3.253126   2.571329   3.630560   3.589079   2.448491
    15  C    2.489456   1.385398   2.245533   2.255182   1.390332
    16  C    3.012190   4.358479   5.211514   6.422414   6.485878
    17  C    3.187528   4.476050   5.063748   6.345709   6.622859
    18  C    4.571654   5.832741   6.323599   7.617835   7.960715
    19  C    5.528565   6.853940   7.470400   8.759950   9.005974
    20  C    5.458201   6.807548   7.599003   8.844783   8.937006
    21  C    4.341114   5.667507   6.567744   7.757465   7.751207
    22  H    6.520628   7.720582   8.671279   9.755923   9.629259
    23  H    6.524399   7.709890   8.816297   9.852843   9.552082
    24  H    6.241694   7.280700   8.391976   9.317784   8.956032
    25  H    4.182610   5.039389   6.192083   7.010199   6.586178
    26  H    2.116248   2.495166   3.677937   4.358577   3.920008
    27  H    5.674175   4.334762   4.077732   2.833898   2.162859
    28  H    6.326337   5.197619   5.561415   4.644551   3.397733
    29  H    5.391049   4.689897   5.602980   5.221477   3.875943
    30  H    3.176306   2.952058   4.207009   4.436677   3.436225
    31  H    2.631192   3.774586   4.194538   5.476545   5.863817
    32  H    5.087945   6.240426   6.551758   7.833093   8.296660
    33  H    6.564265   7.874005   8.430272   9.728234  10.019819
    34  H    6.452052   7.795016   8.624746   9.856087   9.901956
                   11         12         13         14         15
    11  C    0.000000
    12  C    1.400054   0.000000
    13  C    2.430906   1.396035   0.000000
    14  C    2.839516   2.437025   1.400088   0.000000
    15  C    2.415779   2.764263   2.391342   1.403557   0.000000
    16  C    7.715226   7.902694   6.958693   5.573617   5.308647
    17  C    7.927713   8.280334   7.466870   6.075450   5.593887
    18  C    9.270233   9.629353   8.801550   7.419535   6.959633
    19  C   10.283500  10.529954   9.590827   8.212686   7.907015
    20  C   10.152933  10.268862   9.233842   7.881340   7.739564
    21  C    8.927366   9.000555   7.956431   6.614305   6.520051
    22  H   10.678311  10.597162   9.487848   8.288518   8.392828
    23  H   10.512656  10.257719   9.022379   7.879502   8.213786
    24  H    9.837025   9.560394   8.377865   7.320237   7.675492
    25  H    7.450100   7.229407   6.118778   5.032471   5.334550
    26  H    4.877043   4.895457   4.010090   2.784400   2.723658
    27  H    1.084943   2.169201   3.418071   3.924378   3.400506
    28  H    2.154561   1.088036   2.154231   3.417088   3.852284
    29  H    3.410595   2.150417   1.088873   2.154395   3.384346
    30  H    3.924150   3.420250   2.165845   1.084966   2.183776
    31  H    7.196191   7.670132   6.990073   5.624483   4.966253
    32  H    9.620428  10.074278   9.338095   7.978848   7.411937
    33  H   11.305648  11.567838  10.632635   9.259705   8.944734
    34  H   11.086384  11.135662  10.048569   8.726266   8.673398
                   16         17         18         19         20
    16  C    0.000000
    17  C    1.412428   0.000000
    18  C    2.434777   1.398897   0.000000
    19  C    2.811380   2.421735   1.390197   0.000000
    20  C    2.455690   2.817280   2.424334   1.397194   0.000000
    21  C    1.399621   2.413089   2.773782   2.403962   1.404915
    22  H    4.015631   5.141300   5.314953   4.468676   3.114173
    23  H    4.019529   5.147402   5.320898   4.472486   3.115490
    24  H    4.295105   5.642363   6.151048   5.542520   4.180788
    25  H    3.328110   4.712092   5.707462   5.660491   4.603231
    26  H    3.540022   4.426578   5.782017   6.351397   5.801841
    27  H    8.639193   8.772665  10.095418  11.161407  11.088847
    28  H    8.950033   9.349316  10.692497  11.578936  11.292530
    29  H    7.438442   8.049333   9.348018  10.034751   9.584712
    30  H    4.952862   5.593873   6.893604   7.557698   7.128587
    31  H    2.174706   1.087123   2.154577   3.401813   3.904275
    32  H    3.417080   2.152780   1.087099   2.150976   3.407182
    33  H    3.898795   3.403293   2.146680   1.087435   2.152498
    34  H    3.440959   3.902397   3.406107   2.158553   1.085142
                   21         22         23         24         25
    21  C    0.000000
    22  H    2.799663   0.000000
    23  H    2.801303   1.799576   0.000000
    24  H    3.380414   1.787944   1.787972   0.000000
    25  H    3.272051   3.497338   3.495865   2.404014   0.000000
    26  H    4.432184   5.813048   5.817911   5.051730   2.680438
    27  H    9.883481  11.647525  11.545944  10.844444   8.447343
    28  H   10.015443  11.528002  11.144036  10.406707   8.109892
    29  H    8.308985   9.672237   9.061124   8.416175   6.292266
    30  H    5.863772   7.475730   6.927783   6.447990   4.271068
    31  H    3.405632   6.101085   6.109202   6.463268   5.197056
    32  H    3.860877   6.359663   6.367014   7.237616   6.733173
    33  H    3.393338   5.074755   5.078573   6.306427   6.665329
    34  H    2.178583   2.743505   2.742345   4.031368   5.010891
                   26         27         28         29         30
    26  H    0.000000
    27  H    5.848517   0.000000
    28  H    5.885992   2.495209   0.000000
    29  H    4.553423   4.309730   2.469697   0.000000
    30  H    2.451551   5.008888   4.311414   2.489065   0.000000
    31  H    4.310007   7.979607   8.744533   7.672581   5.310520
    32  H    6.558720  10.379881  11.135479   9.937910   7.540539
    33  H    7.438801  12.168340  12.615445  11.066868   8.599854
    34  H    6.586859  12.042106  12.138058  10.327252   7.915775
                   31         32         33         34
    31  H    0.000000
    32  H    2.470891   0.000000
    33  H    4.292458   2.471105   0.000000
    34  H    4.989345   4.300385   2.480901   0.000000
 Stoichiometry    C16H13N5
 Framework group  C1[X(C16H13N5)]
 Deg. of freedom    96
 Full point group                 C1      NOp   1
 Largest Abelian subgroup         C1      NOp   1
 Largest concise Abelian subgroup C1      NOp   1
                         Standard orientation:                         
 ---------------------------------------------------------------------
 Center     Atomic      Atomic             Coordinates (Angstroms)
 Number     Number       Type             X           Y           Z
 ---------------------------------------------------------------------
      1          6           0        4.299265    2.646570   -0.542266
      2          7           0        3.314786    1.599761   -0.378180
      3          6           0        1.971327    1.750109   -0.594392
      4          6           0        1.349681    0.539786   -0.343580
      5          6           0       -0.080365    0.338829   -0.472140
      6          7           0       -0.590000   -0.818466   -0.226312
      7          7           0       -1.936635   -0.876549   -0.323342
      8          7           0       -2.498718   -1.972178   -0.875954
      9          7           0       -3.813056   -1.797458   -0.911278
     10          6           0       -4.094826   -0.613203   -0.295749
     11          6           0       -5.327093    0.005494   -0.038915
     12          6           0       -5.336465    1.219488    0.658423
     13          6           0       -4.145421    1.799739    1.098467
     14          6           0       -2.906731    1.198127    0.845575
     15          6           0       -2.916691   -0.004423    0.121872
     16          6           0        2.378005   -0.380978    0.043576
     17          6           0        2.391926   -1.743185    0.416606
     18          6           0        3.600198   -2.365553    0.747741
     19          6           0        4.793785   -1.653661    0.713012
     20          6           0        4.813747   -0.305491    0.346692
     21          6           0        3.594915    0.309887    0.015718
     22          1           0        5.018646    2.328910   -1.301344
     23          1           0        4.794492    2.809113    0.418433
     24          1           0        3.805357    3.567113   -0.863710
     25          1           0        1.563152    2.701350   -0.911193
     26          1           0       -0.665227    1.215402   -0.806166
     27          1           0       -6.251160   -0.460250   -0.364927
     28          1           0       -6.285640    1.706842    0.871435
     29          1           0       -4.181366    2.734173    1.656306
     30          1           0       -1.988224    1.643815    1.212806
     31          1           0        1.467582   -2.314685    0.445143
     32          1           0        3.600794   -3.414833    1.031985
     33          1           0        5.724467   -2.152768    0.972315
     34          1           0        5.750962    0.240838    0.320536
 ---------------------------------------------------------------------
 Rotational constants (GHZ):           0.7587678           0.1473201           0.1294169
 Leave Link  202 at Tue Jan 30 20:59:46 2024, MaxMem=  1073741824 cpu:               0.1 elap:               0.1
 (Enter /share/software/user/restricted/gaussian/g16.B01/l301.exe)
 Standard basis: 3-21G* (6D, 7F)
 Ernie: Thresh=  0.10000D-02 Tol=  0.10000D-05 Strict=F.
 There are   215 symmetry adapted cartesian basis functions of A   symmetry.
 There are   215 symmetry adapted basis functions of A   symmetry.
   215 basis functions,   354 primitive gaussians,   215 cartesian basis functions
    72 alpha electrons       72 beta electrons
       nuclear repulsion energy      1484.3896715455 Hartrees.
 IExCor=  402 DFT=T Ex+Corr=B3LYP ExCW=0 ScaHFX=  0.200000
 ScaDFX=  0.800000  0.720000  1.000000  0.810000 ScalE2=  1.000000  1.000000
 IRadAn=      5 IRanWt=     -1 IRanGd=            0 ICorTp=0 IEmpDi=  4
 NAtoms=   34 NActive=   34 NUniq=   34 SFac= 1.00D+00 NAtFMM=   60 NAOKFM=F Big=F
 Integral buffers will be    131072 words long.
 Regular integral format.
 Two-electron integral symmetry is turned on.
 Force inversion solution in PCM.
 ------------------------------------------------------------------------------
 Polarizable Continuum Model (PCM)
 =================================
 Model                : PCM.
 Atomic radii         : UFF (Universal Force Field).
 Polarization charges : Total charges.
 Charge compensation  : None.
 Solution method      : Matrix inversion.
 Cavity type          : Scaled VdW (van der Waals Surface) (Alpha=1.100).
 Cavity algorithm     : GePol (No added spheres)
                        Default sphere list used, NSphG=   34.
                        Lebedev-Laikov grids with approx.  5.0 points / Ang**2.
                        Smoothing algorithm: York/Karplus (Gamma=1.0000).
                        Polarization charges: spherical gaussians, with
                                              point-specific exponents (IZeta= 3).
                        Self-potential: point-specific (ISelfS= 7).
                        Self-field    : sphere-specific E.n sum rule (ISelfD= 2).
 1st derivatives      : Analytical E(r).r(x)/FMM algorithm (CHGder, D1EAlg=3).
                        Cavity 1st derivative terms included.
 2nd derivatives      : Analytical E(r).r(xy)/FMM algorithm (CHGder, D2EAlg=3).
                        Cavity 2nd derivative terms included.
 Solvent              : Water, Eps=  78.355300 Eps(inf)=   1.777849
 ------------------------------------------------------------------------------
 GePol: Number of generator spheres                  =      34
 GePol: Total number of spheres                      =      34
 GePol: Number of exposed spheres                    =      34 (100.00%)
 GePol: Number of points                             =    2699
 GePol: Average weight of points                     =       0.13
 GePol: Minimum weight of points                     =   0.30D-11
 GePol: Maximum weight of points                     =    0.20577
 GePol: Number of points with low weight             =     190
 GePol: Fraction of low-weight points (<1% of avg)   =       7.04%
 GePol: Cavity surface area                          =    346.860 Ang**2
 GePol: Cavity volume                                =    375.205 Ang**3
 Leave Link  301 at Tue Jan 30 20:59:46 2024, MaxMem=  1073741824 cpu:               0.6 elap:               0.1
 (Enter /share/software/user/restricted/gaussian/g16.B01/l302.exe)
 NPDir=0 NMtPBC=     1 NCelOv=     1 NCel=       1 NClECP=     1 NCelD=      1
         NCelK=      1 NCelE2=     1 NClLst=     1 CellRange=     0.0.
 One-electron integrals computed using PRISM.
 One-electron integral symmetry used in STVInt
 NBasis=   215 RedAO= T EigKep=  1.21D-03  NBF=   215
 NBsUse=   215 1.00D-06 EigRej= -1.00D+00 NBFU=   215
 Precomputing XC quadrature grid using
 IXCGrd= 4 IRadAn=           5 IRanWt=          -1 IRanGd=           0 AccXCQ= 0.00D+00.
 Generated NRdTot=       0 NPtTot=           0 NUsed=           0 NTot=          32
 NSgBfM=   210   210   210   210   210 MxSgAt=    34 MxSgA2=    34.
 Leave Link  302 at Tue Jan 30 20:59:47 2024, MaxMem=  1073741824 cpu:               2.9 elap:               0.4
 (Enter /share/software/user/restricted/gaussian/g16.B01/l303.exe)
 DipDrv:  MaxL=1.
 Leave Link  303 at Tue Jan 30 20:59:47 2024, MaxMem=  1073741824 cpu:               0.4 elap:               0.1
 (Enter /share/software/user/restricted/gaussian/g16.B01/l308.exe)
 Leave Link  308 at Tue Jan 30 20:59:47 2024, MaxMem=  1073741824 cpu:               0.7 elap:               0.2
 (Enter /share/software/user/restricted/gaussian/g16.B01/l401.exe)
 ExpMin= 1.83D-01 ExpMax= 2.43D+02 ExpMxC= 2.43D+02 IAcc=3 IRadAn=         5 AccDes= 0.00D+00
 Harris functional with IExCor=  402 and IRadAn=       5 diagonalized for initial guess.
 HarFok:  IExCor=  402 AccDes= 0.00D+00 IRadAn=         5 IDoV= 1 UseB2=F ITyADJ=14
 ICtDFT=  3500011 ScaDFX=  1.000000  1.000000  1.000000  1.000000
 FoFCou: FMM=F IPFlag=           0 FMFlag=      100000 FMFlg1=           0
         NFxFlg=           0 DoJE=T BraDBF=F KetDBF=T FulRan=T
         wScrn=  0.000000 ICntrl=       500 IOpCl=  0 I1Cent=   200000004 NGrid=           0
         NMat0=    1 NMatS0=      1 NMatT0=    0 NMatD0=    1 NMtDS0=    0 NMtDT0=    0
 Petite list used in FoFCou.
 Harris En= -886.144758408677    
 JPrj=0 DoOrth=F DoCkMO=F.
 Leave Link  401 at Tue Jan 30 20:59:49 2024, MaxMem=  1073741824 cpu:              13.2 elap:               1.8
 (Enter /share/software/user/restricted/gaussian/g16.B01/l502.exe)
 Integral symmetry usage will be decided dynamically.
 Closed shell SCF:
 Using DIIS extrapolation, IDIIS=  1040.
 NGot=  1073741824 LenX=  1073644840 LenY=  1073598174
 Requested convergence on RMS density matrix=1.00D-08 within 128 cycles.
 Requested convergence on MAX density matrix=1.00D-06.
 Requested convergence on             energy=1.00D-06.
 No special actions if energy rises.
 Fock matrices will be formed incrementally for  20 cycles.

 Cycle   1  Pass 1  IDiag  1:
 FoFJK:  IHMeth= 1 ICntrl=       0 DoSepK=F KAlg= 0 I1Cent=           0 FoldK=F
 IRaf= 670000000 NMat=       1 IRICut=       1 DoRegI=T DoRafI=F ISym2E= 0 IDoP0=0 IntGTp=1.
 FoFCou: FMM=F IPFlag=           0 FMFlag=      100000 FMFlg1=           0
         NFxFlg=           0 DoJE=F BraDBF=F KetDBF=F FulRan=T
         wScrn=  0.000000 ICntrl=         0 IOpCl=  0 I1Cent=           0 NGrid=           0
         NMat0=    1 NMatS0=      1 NMatT0=    0 NMatD0=    1 NMtDS0=    0 NMtDT0=    0
 Symmetry not used in FoFCou.
 Inv3:  Mode=1 IEnd=    21853803.
 Iteration    1 A*A^-1 deviation from unit magnitude is 6.77D-15 for   2686.
 Iteration    1 A*A^-1 deviation from orthogonality  is 3.03D-15 for   2653    730.
 Iteration    1 A^-1*A deviation from unit magnitude is 6.77D-15 for   2686.
 Iteration    1 A^-1*A deviation from orthogonality  is 5.01D-15 for   2698     88.
 E= -885.966554697540    
 DIIS: error= 2.73D-02 at cycle   1 NSaved=   1.
 NSaved= 1 IEnMin= 1 EnMin= -885.966554697540     IErMin= 1 ErrMin= 2.73D-02
 ErrMax= 2.73D-02  0.00D+00 EMaxC= 1.00D-01 BMatC= 3.04D-01 BMatP= 3.04D-01
 IDIUse=3 WtCom= 7.27D-01 WtEn= 2.73D-01
 Coeff-Com:  0.100D+01
 Coeff-En:   0.100D+01
 Coeff:      0.100D+01
 Gap=     0.222 Goal=   None    Shift=    0.000
 GapD=    0.222 DampG=1.000 DampE=0.500 DampFc=0.5000 IDamp=-1.
 Damping current iteration by 5.00D-01
 RMSDP=7.40D-03 MaxDP=3.39D-01              OVMax= 2.91D-01

 Cycle   2  Pass 1  IDiag  1:
 RMSU=  3.70D-03    CP:  9.96D-01
 E= -886.067051859402     Delta-E=       -0.100497161862 Rises=F Damp=T
 DIIS: error= 1.38D-02 at cycle   2 NSaved=   2.
 NSaved= 2 IEnMin= 2 EnMin= -886.067051859402     IErMin= 2 ErrMin= 1.38D-02
 ErrMax= 1.38D-02  0.00D+00 EMaxC= 1.00D-01 BMatC= 5.26D-02 BMatP= 3.04D-01
 IDIUse=3 WtCom= 8.62D-01 WtEn= 1.38D-01
 Coeff-Com:  0.191D+00 0.809D+00
 Coeff-En:   0.301D+00 0.699D+00
 Coeff:      0.206D+00 0.794D+00
 Gap=     0.154 Goal=   None    Shift=    0.000
 RMSDP=2.21D-03 MaxDP=7.81D-02 DE=-1.00D-01 OVMax= 2.48D-01

 Cycle   3  Pass 1  IDiag  1:
 RMSU=  1.96D-03    CP:  9.94D-01  7.26D-01
 E= -886.252161674513     Delta-E=       -0.185109815111 Rises=F Damp=F
 DIIS: error= 1.65D-02 at cycle   3 NSaved=   3.
 NSaved= 3 IEnMin= 3 EnMin= -886.252161674513     IErMin= 2 ErrMin= 1.38D-02
 ErrMax= 1.65D-02  0.00D+00 EMaxC= 1.00D-01 BMatC= 4.30D-02 BMatP= 5.26D-02
 IDIUse=3 WtCom= 8.35D-01 WtEn= 1.65D-01
 Coeff-Com:  0.267D-01 0.466D+00 0.507D+00
 Coeff-En:   0.000D+00 0.000D+00 0.100D+01
 Coeff:      0.223D-01 0.389D+00 0.589D+00
 Gap=     0.149 Goal=   None    Shift=    0.000
 RMSDP=1.61D-03 MaxDP=6.40D-02 DE=-1.85D-01 OVMax= 7.96D-02

 Cycle   4  Pass 1  IDiag  1:
 RMSU=  9.98D-04    CP:  9.98D-01  9.09D-01  4.62D-01
 E= -886.278310896270     Delta-E=       -0.026149221756 Rises=F Damp=F
 DIIS: error= 1.06D-02 at cycle   4 NSaved=   4.
 NSaved= 4 IEnMin= 4 EnMin= -886.278310896270     IErMin= 4 ErrMin= 1.06D-02
 ErrMax= 1.06D-02  0.00D+00 EMaxC= 1.00D-01 BMatC= 1.45D-02 BMatP= 4.30D-02
 IDIUse=3 WtCom= 8.94D-01 WtEn= 1.06D-01
 Coeff-Com:  0.101D-01 0.130D+00 0.377D+00 0.483D+00
 Coeff-En:   0.000D+00 0.000D+00 0.290D+00 0.710D+00
 Coeff:      0.901D-02 0.116D+00 0.368D+00 0.507D+00
 Gap=     0.149 Goal=   None    Shift=    0.000
 RMSDP=7.31D-04 MaxDP=2.57D-02 DE=-2.61D-02 OVMax= 3.49D-02

 Cycle   5  Pass 1  IDiag  1:
 RMSU=  3.05D-04    CP:  9.96D-01  8.46D-01  6.63D-01  5.19D-01
 E= -886.290743703862     Delta-E=       -0.012432807592 Rises=F Damp=F
 DIIS: error= 1.86D-03 at cycle   5 NSaved=   5.
 NSaved= 5 IEnMin= 5 EnMin= -886.290743703862     IErMin= 5 ErrMin= 1.86D-03
 ErrMax= 1.86D-03  0.00D+00 EMaxC= 1.00D-01 BMatC= 7.94D-04 BMatP= 1.45D-02
 IDIUse=3 WtCom= 9.81D-01 WtEn= 1.86D-02
 Coeff-Com:  0.282D-02 0.982D-02 0.142D+00 0.297D+00 0.548D+00
 Coeff-En:   0.000D+00 0.000D+00 0.000D+00 0.000D+00 0.100D+01
 Coeff:      0.276D-02 0.964D-02 0.139D+00 0.292D+00 0.556D+00
 Gap=     0.149 Goal=   None    Shift=    0.000
 RMSDP=1.88D-04 MaxDP=5.44D-03 DE=-1.24D-02 OVMax= 1.19D-02

 Cycle   6  Pass 1  IDiag  1:
 RMSU=  9.89D-05    CP:  9.96D-01  8.43D-01  6.45D-01  5.82D-01  5.40D-01
 E= -886.291466065112     Delta-E=       -0.000722361250 Rises=F Damp=F
 DIIS: error= 4.90D-04 at cycle   6 NSaved=   6.
 NSaved= 6 IEnMin= 6 EnMin= -886.291466065112     IErMin= 6 ErrMin= 4.90D-04
 ErrMax= 4.90D-04  0.00D+00 EMaxC= 1.00D-01 BMatC= 5.55D-05 BMatP= 7.94D-04
 IDIUse=3 WtCom= 9.95D-01 WtEn= 4.90D-03
 Coeff-Com:  0.100D-02-0.162D-02 0.535D-01 0.131D+00 0.317D+00 0.500D+00
 Coeff-En:   0.000D+00 0.000D+00 0.000D+00 0.000D+00 0.000D+00 0.100D+01
 Coeff:      0.999D-03-0.161D-02 0.532D-01 0.130D+00 0.315D+00 0.502D+00
 Gap=     0.150 Goal=   None    Shift=    0.000
 RMSDP=5.27D-05 MaxDP=1.61D-03 DE=-7.22D-04 OVMax= 4.12D-03

 Cycle   7  Pass 1  IDiag  1:
 RMSU=  3.23D-05    CP:  9.96D-01  8.42D-01  6.48D-01  5.83D-01  5.82D-01
                    CP:  6.05D-01
 E= -886.291520384301     Delta-E=       -0.000054319189 Rises=F Damp=F
 DIIS: error= 1.18D-04 at cycle   7 NSaved=   7.
 NSaved= 7 IEnMin= 7 EnMin= -886.291520384301     IErMin= 7 ErrMin= 1.18D-04
 ErrMax= 1.18D-04  0.00D+00 EMaxC= 1.00D-01 BMatC= 4.02D-06 BMatP= 5.55D-05
 IDIUse=3 WtCom= 9.99D-01 WtEn= 1.18D-03
 Coeff-Com:  0.248D-03-0.192D-02 0.821D-02 0.277D-01 0.897D-01 0.257D+00
 Coeff-Com:  0.619D+00
 Coeff-En:   0.000D+00 0.000D+00 0.000D+00 0.000D+00 0.000D+00 0.000D+00
 Coeff-En:   0.100D+01
 Coeff:      0.248D-03-0.191D-02 0.820D-02 0.277D-01 0.896D-01 0.257D+00
 Coeff:      0.619D+00
 Gap=     0.150 Goal=   None    Shift=    0.000
 RMSDP=1.35D-05 MaxDP=3.63D-04 DE=-5.43D-05 OVMax= 8.63D-04

 Cycle   8  Pass 1  IDiag  1:
 RMSU=  7.33D-06    CP:  9.96D-01  8.43D-01  6.48D-01  5.85D-01  5.90D-01
                    CP:  6.49D-01  7.01D-01
 E= -886.291523950608     Delta-E=       -0.000003566307 Rises=F Damp=F
 DIIS: error= 3.39D-05 at cycle   8 NSaved=   8.
 NSaved= 8 IEnMin= 8 EnMin= -886.291523950608     IErMin= 8 ErrMin= 3.39D-05
 ErrMax= 3.39D-05  0.00D+00 EMaxC= 1.00D-01 BMatC= 4.99D-07 BMatP= 4.02D-06
 IDIUse=1 WtCom= 1.00D+00 WtEn= 0.00D+00
 Coeff-Com:  0.921D-04-0.997D-03 0.725D-03 0.613D-02 0.277D-01 0.112D+00
 Coeff-Com:  0.357D+00 0.498D+00
 Coeff:      0.921D-04-0.997D-03 0.725D-03 0.613D-02 0.277D-01 0.112D+00
 Coeff:      0.357D+00 0.498D+00
 Gap=     0.150 Goal=   None    Shift=    0.000
 RMSDP=3.71D-06 MaxDP=9.85D-05 DE=-3.57D-06 OVMax= 1.50D-04

 Cycle   9  Pass 1  IDiag  1:
 RMSU=  2.30D-06    CP:  9.96D-01  8.43D-01  6.48D-01  5.85D-01  5.90D-01
                    CP:  6.51D-01  7.23D-01  6.18D-01
 E= -886.291524411635     Delta-E=       -0.000000461026 Rises=F Damp=F
 DIIS: error= 9.77D-06 at cycle   9 NSaved=   9.
 NSaved= 9 IEnMin= 9 EnMin= -886.291524411635     IErMin= 9 ErrMin= 9.77D-06
 ErrMax= 9.77D-06  0.00D+00 EMaxC= 1.00D-01 BMatC= 1.94D-08 BMatP= 4.99D-07
 IDIUse=1 WtCom= 1.00D+00 WtEn= 0.00D+00
 Coeff-Com:  0.383D-04-0.315D-03-0.121D-03 0.922D-03 0.624D-02 0.341D-01
 Coeff-Com:  0.123D+00 0.227D+00 0.609D+00
 Coeff:      0.383D-04-0.315D-03-0.121D-03 0.922D-03 0.624D-02 0.341D-01
 Coeff:      0.123D+00 0.227D+00 0.609D+00
 Gap=     0.150 Goal=   None    Shift=    0.000
 RMSDP=1.04D-06 MaxDP=2.68D-05 DE=-4.61D-07 OVMax= 6.00D-05

 Cycle  10  Pass 1  IDiag  1:
 RMSU=  9.43D-07    CP:  9.96D-01  8.43D-01  6.48D-01  5.86D-01  5.90D-01
                    CP:  6.52D-01  7.25D-01  6.43D-01  8.41D-01
 E= -886.291524427764     Delta-E=       -0.000000016129 Rises=F Damp=F
 DIIS: error= 4.32D-06 at cycle  10 NSaved=  10.
 NSaved=10 IEnMin=10 EnMin= -886.291524427764     IErMin=10 ErrMin= 4.32D-06
 ErrMax= 4.32D-06  0.00D+00 EMaxC= 1.00D-01 BMatC= 5.23D-09 BMatP= 1.94D-08
 IDIUse=1 WtCom= 1.00D+00 WtEn= 0.00D+00
 Coeff-Com:  0.968D-05-0.278D-04-0.181D-03-0.565D-03-0.145D-02-0.353D-03
 Coeff-Com:  0.662D-02 0.410D-01 0.370D+00 0.585D+00
 Coeff:      0.968D-05-0.278D-04-0.181D-03-0.565D-03-0.145D-02-0.353D-03
 Coeff:      0.662D-02 0.410D-01 0.370D+00 0.585D+00
 Gap=     0.150 Goal=   None    Shift=    0.000
 RMSDP=4.69D-07 MaxDP=1.17D-05 DE=-1.61D-08 OVMax= 2.32D-05

 Cycle  11  Pass 1  IDiag  1:
 RMSU=  2.64D-07    CP:  9.96D-01  8.43D-01  6.48D-01  5.85D-01  5.90D-01
                    CP:  6.53D-01  7.28D-01  6.56D-01  8.98D-01  6.98D-01
 E= -886.291524432744     Delta-E=       -0.000000004981 Rises=F Damp=F
 DIIS: error= 1.20D-06 at cycle  11 NSaved=  11.
 NSaved=11 IEnMin=11 EnMin= -886.291524432744     IErMin=11 ErrMin= 1.20D-06
 ErrMax= 1.20D-06  0.00D+00 EMaxC= 1.00D-01 BMatC= 3.75D-10 BMatP= 5.23D-09
 IDIUse=1 WtCom= 1.00D+00 WtEn= 0.00D+00
 Coeff-Com:  0.189D-05 0.154D-04-0.899D-04-0.406D-03-0.140D-02-0.332D-02
 Coeff-Com: -0.759D-02 0.180D-02 0.150D+00 0.310D+00 0.551D+00
 Coeff:      0.189D-05 0.154D-04-0.899D-04-0.406D-03-0.140D-02-0.332D-02
 Coeff:     -0.759D-02 0.180D-02 0.150D+00 0.310D+00 0.551D+00
 Gap=     0.150 Goal=   None    Shift=    0.000
 RMSDP=1.22D-07 MaxDP=3.48D-06 DE=-4.98D-09 OVMax= 5.67D-06

 Cycle  12  Pass 1  IDiag  1:
 RMSU=  8.96D-08    CP:  9.96D-01  8.43D-01  6.48D-01  5.85D-01  5.90D-01
                    CP:  6.53D-01  7.29D-01  6.55D-01  9.15D-01  7.17D-01
                    CP:  7.61D-01
 E= -886.291524433104     Delta-E=       -0.000000000359 Rises=F Damp=F
 DIIS: error= 3.21D-07 at cycle  12 NSaved=  12.
 NSaved=12 IEnMin=12 EnMin= -886.291524433104     IErMin=12 ErrMin= 3.21D-07
 ErrMax= 3.21D-07  0.00D+00 EMaxC= 1.00D-01 BMatC= 2.07D-11 BMatP= 3.75D-10
 IDIUse=1 WtCom= 1.00D+00 WtEn= 0.00D+00
 Coeff-Com: -0.343D-06 0.803D-05-0.223D-04-0.113D-03-0.432D-03-0.129D-02
 Coeff-Com: -0.371D-02-0.313D-02 0.258D-01 0.698D-01 0.225D+00 0.688D+00
 Coeff:     -0.343D-06 0.803D-05-0.223D-04-0.113D-03-0.432D-03-0.129D-02
 Coeff:     -0.371D-02-0.313D-02 0.258D-01 0.698D-01 0.225D+00 0.688D+00
 Gap=     0.150 Goal=   None    Shift=    0.000
 RMSDP=3.83D-08 MaxDP=7.93D-07 DE=-3.59D-10 OVMax= 3.18D-06

 Cycle  13  Pass 1  IDiag  1:
 RMSU=  2.98D-08    CP:  9.96D-01  8.43D-01  6.48D-01  5.85D-01  5.90D-01
                    CP:  6.53D-01  7.29D-01  6.57D-01  9.19D-01  7.27D-01
                    CP:  7.86D-01  8.53D-01
 E= -886.291524433124     Delta-E=       -0.000000000021 Rises=F Damp=F
 DIIS: error= 1.55D-07 at cycle  13 NSaved=  13.
 NSaved=13 IEnMin=13 EnMin= -886.291524433124     IErMin=13 ErrMin= 1.55D-07
 ErrMax= 1.55D-07  0.00D+00 EMaxC= 1.00D-01 BMatC= 6.27D-12 BMatP= 2.07D-11
 IDIUse=1 WtCom= 1.00D+00 WtEn= 0.00D+00
 Coeff-Com: -0.547D-06 0.290D-05 0.930D-06-0.332D-05-0.386D-04-0.261D-03
 Coeff-Com: -0.110D-02-0.223D-02-0.814D-02-0.594D-02 0.454D-01 0.404D+00
 Coeff-Com:  0.569D+00
 Coeff:     -0.547D-06 0.290D-05 0.930D-06-0.332D-05-0.386D-04-0.261D-03
 Coeff:     -0.110D-02-0.223D-02-0.814D-02-0.594D-02 0.454D-01 0.404D+00
 Coeff:      0.569D+00
 Gap=     0.150 Goal=   None    Shift=    0.000
 RMSDP=1.49D-08 MaxDP=4.10D-07 DE=-2.07D-11 OVMax= 9.66D-07

 Cycle  14  Pass 1  IDiag  1:
 RMSU=  8.66D-09    CP:  9.96D-01  8.43D-01  6.48D-01  5.85D-01  5.90D-01
                    CP:  6.53D-01  7.29D-01  6.57D-01  9.20D-01  7.28D-01
                    CP:  8.02D-01  9.08D-01  6.85D-01
 E= -886.291524433128     Delta-E=       -0.000000000004 Rises=F Damp=F
 DIIS: error= 2.70D-08 at cycle  14 NSaved=  14.
 NSaved=14 IEnMin=14 EnMin= -886.291524433128     IErMin=14 ErrMin= 2.70D-08
 ErrMax= 2.70D-08  0.00D+00 EMaxC= 1.00D-01 BMatC= 1.02D-13 BMatP= 6.27D-12
 IDIUse=1 WtCom= 1.00D+00 WtEn= 0.00D+00
 Coeff-Com: -0.184D-06 0.565D-06 0.866D-06 0.329D-05 0.729D-05-0.179D-04
 Coeff-Com: -0.164D-03-0.468D-03-0.347D-02-0.412D-02 0.268D-02 0.969D-01
 Coeff-Com:  0.167D+00 0.742D+00
 Coeff:     -0.184D-06 0.565D-06 0.866D-06 0.329D-05 0.729D-05-0.179D-04
 Coeff:     -0.164D-03-0.468D-03-0.347D-02-0.412D-02 0.268D-02 0.969D-01
 Coeff:      0.167D+00 0.742D+00
 Gap=     0.150 Goal=   None    Shift=    0.000
 RMSDP=3.00D-09 MaxDP=8.42D-08 DE=-4.09D-12 OVMax= 1.56D-07

 Error on total polarization charges =  0.00662
 SCF Done:  E(RB3LYP) =  -886.291524433     A.U. after   14 cycles
            NFock= 14  Conv=0.30D-08     -V/T= 2.0078
 KE= 8.794406974268D+02 PE=-5.025524182143D+03 EE= 1.775402288737D+03
 Leave Link  502 at Tue Jan 30 21:00:21 2024, MaxMem=  1073741824 cpu:             246.6 elap:              31.4
 (Enter /share/software/user/restricted/gaussian/g16.B01/l801.exe)
 DoSCS=F DFT=T ScalE2(SS,OS)=  1.000000  1.000000
 ExpMin= 1.83D-01 ExpMax= 2.43D+02 ExpMxC= 2.43D+02 IAcc=3 IRadAn=         5 AccDes= 0.00D+00
 HarFok:  IExCor=  205 AccDes= 0.00D+00 IRadAn=         5 IDoV=-2 UseB2=F ITyADJ=14
 ICtDFT= 12500011 ScaDFX=  1.000000  1.000000  1.000000  1.000000
 GSVD:  LWork=        -609 too small for GESVD, short by        2520 words or        2520 for optimal perf.
 Largest valence mixing into a core orbital is  2.33D-04
 Largest core mixing into a valence orbital is  6.80D-05
 Range of M.O.s used for correlation:    22   215
 NBasis=   215 NAE=    72 NBE=    72 NFC=    21 NFV=     0
 NROrb=    194 NOA=    51 NOB=    51 NVA=   143 NVB=   143
 Leave Link  801 at Tue Jan 30 21:00:22 2024, MaxMem=  1073741824 cpu:               1.5 elap:               0.3
 (Enter /share/software/user/restricted/gaussian/g16.B01/l914.exe)
 RHF ground state
 Keep R1, R2, and R3 ints in memory in canonical form, NReq=850712260.
 FoFCou: FMM=F IPFlag=           0 FMFlag=           0 FMFlg1=           0
         NFxFlg=           0 DoJE=F BraDBF=F KetDBF=F FulRan=T
         wScrn=  0.000000 ICntrl=       600 IOpCl=  0 I1Cent=           0 NGrid=           0
         NMat0=    1 NMatS0=  23220 NMatT0=    0 NMatD0=    1 NMtDS0=    0 NMtDT0=    0
 Symmetry not used in FoFCou.
 Two-electron integral symmetry not used.
 MDV=  1073741824 DFT=T DoStab=F Mixed=T DoRPA=T DoScal=F NonHer=T
 NEqPCM:  Using equilibrium solvation (IEInf=0, Eps=  78.3553, EpsInf=   1.7778)
 Making orbital integer symmetry assigments:
 Orbital symmetries:
       Occupied  (A) (A) (A) (A) (A) (A) (A) (A) (A) (A) (A) (A)
                 (A) (A) (A) (A) (A) (A) (A) (A) (A) (A) (A) (A)
                 (A) (A) (A) (A) (A) (A) (A) (A) (A) (A) (A) (A)
                 (A) (A) (A) (A) (A) (A) (A) (A) (A) (A) (A) (A)
                 (A) (A) (A) (A) (A) (A) (A) (A) (A) (A) (A) (A)
                 (A) (A) (A) (A) (A) (A) (A) (A) (A) (A) (A) (A)
       Virtual   (A) (A) (A) (A) (A) (A) (A) (A) (A) (A) (A) (A)
                 (A) (A) (A) (A) (A) (A) (A) (A) (A) (A) (A) (A)
                 (A) (A) (A) (A) (A) (A) (A) (A) (A) (A) (A) (A)
                 (A) (A) (A) (A) (A) (A) (A) (A) (A) (A) (A) (A)
                 (A) (A) (A) (A) (A) (A) (A) (A) (A) (A) (A) (A)
                 (A) (A) (A) (A) (A) (A) (A) (A) (A) (A) (A) (A)
                 (A) (A) (A) (A) (A) (A) (A) (A) (A) (A) (A) (A)
                 (A) (A) (A) (A) (A) (A) (A) (A) (A) (A) (A) (A)
                 (A) (A) (A) (A) (A) (A) (A) (A) (A) (A) (A) (A)
                 (A) (A) (A) (A) (A) (A) (A) (A) (A) (A) (A) (A)
                 (A) (A) (A) (A) (A) (A) (A) (A) (A) (A) (A) (A)
                 (A) (A) (A) (A) (A) (A) (A) (A) (A) (A) (A)
    20 initial guesses have been made.
 Convergence on wavefunction:    0.000001000000000
 Davidson Disk Diagonalization:  ConvIn= 1.00D-06 SkipCon=T Conv= 1.00D-06.
 Max sub-space:  2000 roots to seek:    20 dimension of matrix:        14586
 Iteration     1 Dimension    20 NMult     0 NNew     20
 CISAX will form    20 AO SS matrices at one time.
 NMat=    20 NSing=    20 JSym2X= 0.
 New state      3 was old state      4
 New state      4 was old state      5
 New state      5 was old state      9
 Excitation Energies [eV] at current iteration:
 Root      1 :     3.728145453565651
 Root      2 :     4.194202933518514
 Root      3 :     4.535333425817083
 Root      4 :     4.666159619960227
 Root      5 :     4.827710589636012
 Root      6 :     4.985879414667458
 Root      7 :     5.143592859977337
 Root      8 :     5.252930218498506
 Root      9 :     5.276921296290803
 Root     10 :     5.459438831986078
 Root     11 :     5.606395702768611
 Root     12 :     5.629118440592145
 Root     13 :     5.665809336844505
 Root     14 :     5.761863000390239
 Root     15 :     5.947588519580537
 Root     16 :     6.175461802815219
 Root     17 :     6.426427467053759
 Root     18 :     6.567872360167188
 Root     19 :     6.682649837934559
 Root     20 :     7.093183269786808
 Iteration     2 Dimension    30 NMult    20 NNew     10
 CISAX will form    10 AO SS matrices at one time.
 NMat=    10 NSing=    10 JSym2X= 0.
 Root      1 not converged, maximum delta is    0.107061025930220
 Root      2 not converged, maximum delta is    0.103643139428573
 Root      3 not converged, maximum delta is    0.389337686834672
 Root      4 not converged, maximum delta is    0.304651018869288
 Root      5 not converged, maximum delta is    0.078529829941201
 Excitation Energies [eV] at current iteration:
 Root      1 :     3.533236692215616   Change is   -0.194908761350036
 Root      2 :     4.091235762219728   Change is   -0.102967171298786
 Root      3 :     4.317718445551199   Change is   -0.217614980265884
 Root      4 :     4.457770093110444   Change is   -0.208389526849783
 Root      5 :     4.733984088970315   Change is   -0.093726500665697
 Iteration     3 Dimension    40 NMult    30 NNew     10
 CISAX will form    10 AO SS matrices at one time.
 NMat=    10 NSing=    10 JSym2X= 0.
 Root      1 not converged, maximum delta is    0.009094027426810
 Root      2 not converged, maximum delta is    0.011904731181239
 Root      3 not converged, maximum delta is    0.037420830357917
 Root      4 not converged, maximum delta is    0.028959169699097
 Root      5 not converged, maximum delta is    0.050614364369534
 Excitation Energies [eV] at current iteration:
 Root      1 :     3.517590537923106   Change is   -0.015646154292509
 Root      2 :     4.083817004472920   Change is   -0.007418757746808
 Root      3 :     4.298034716231507   Change is   -0.019683729319691
 Root      4 :     4.444393974506299   Change is   -0.013376118604145
 Root      5 :     4.721805144683108   Change is   -0.012178944287206
 Iteration     4 Dimension    50 NMult    40 NNew     10
 CISAX will form    10 AO SS matrices at one time.
 NMat=    10 NSing=    10 JSym2X= 0.
 Root      1 not converged, maximum delta is    0.002084393834271
 Root      2 not converged, maximum delta is    0.003380138639986
 Root      3 not converged, maximum delta is    0.006429207113807
 Root      4 not converged, maximum delta is    0.006442721464021
 Root      5 not converged, maximum delta is    0.076750733060617
 Excitation Energies [eV] at current iteration:
 Root      1 :     3.516192759410437   Change is   -0.001397778512669
 Root      2 :     4.082720574314186   Change is   -0.001096430158734
 Root      3 :     4.295393846346644   Change is   -0.002640869884863
 Root      4 :     4.442322009992190   Change is   -0.002071964514108
 Root      5 :     4.717210515824044   Change is   -0.004594628859065
 Iteration     5 Dimension    60 NMult    50 NNew     10
 CISAX will form    10 AO SS matrices at one time.
 NMat=    10 NSing=    10 JSym2X= 0.
 Root      1 not converged, maximum delta is    0.000566422141750
 Root      2 not converged, maximum delta is    0.000677826457826
 Root      3 not converged, maximum delta is    0.001642432394982
 Root      4 not converged, maximum delta is    0.000952901685582
 Root      5 not converged, maximum delta is    0.090583566127662
 Excitation Energies [eV] at current iteration:
 Root      1 :     3.516081973697832   Change is   -0.000110785712605
 Root      2 :     4.082624349519625   Change is   -0.000096224794561
 Root      3 :     4.295104440170873   Change is   -0.000289406175771
 Root      4 :     4.442132371868402   Change is   -0.000189638123789
 Root      5 :     4.714306015257092   Change is   -0.002904500566952
 Iteration     6 Dimension    70 NMult    60 NNew     10
 CISAX will form    10 AO SS matrices at one time.
 NMat=    10 NSing=    10 JSym2X= 0.
 Root      1 not converged, maximum delta is    0.000101833791318
 Root      2 not converged, maximum delta is    0.000173024572248
 Root      3 not converged, maximum delta is    0.000442300241555
 Root      4 not converged, maximum delta is    0.000304058084386
 Root      5 not converged, maximum delta is    0.046879850485745
 Excitation Energies [eV] at current iteration:
 Root      1 :     3.516073856712198   Change is   -0.000008116985634
 Root      2 :     4.082615561531595   Change is   -0.000008787988029
 Root      3 :     4.295074317062913   Change is   -0.000030123107959
 Root      4 :     4.442111758090925   Change is   -0.000020613777477
 Root      5 :     4.712950951331380   Change is   -0.001355063925712
 Iteration     7 Dimension    80 NMult    70 NNew     10
 CISAX will form    10 AO SS matrices at one time.
 NMat=    10 NSing=    10 JSym2X= 0.
 Root      1 not converged, maximum delta is    0.000023878956420
 Root      2 not converged, maximum delta is    0.000046578377454
 Root      3 not converged, maximum delta is    0.000074840761801
 Root      4 not converged, maximum delta is    0.000042776948238
 Root      5 not converged, maximum delta is    0.004695812008525
 Excitation Energies [eV] at current iteration:
 Root      1 :     3.516073391699246   Change is   -0.000000465012952
 Root      2 :     4.082614968877910   Change is   -0.000000592653685
 Root      3 :     4.295072513521748   Change is   -0.000001803541165
 Root      4 :     4.442110487604273   Change is   -0.000001270486651
 Root      5 :     4.712812223207480   Change is   -0.000138728123899
 Iteration     8 Dimension    90 NMult    80 NNew     10
 CISAX will form    10 AO SS matrices at one time.
 NMat=    10 NSing=    10 JSym2X= 0.
 Root      1 not converged, maximum delta is    0.000005185654276
 Root      2 not converged, maximum delta is    0.000008259155111
 Root      3 not converged, maximum delta is    0.000024868162122
 Root      4 not converged, maximum delta is    0.000011426877252
 Root      5 not converged, maximum delta is    0.000702359854476
 Excitation Energies [eV] at current iteration:
 Root      1 :     3.516073371591418   Change is   -0.000000020107828
 Root      2 :     4.082614936065098   Change is   -0.000000032812812
 Root      3 :     4.295072395299592   Change is   -0.000000118222156
 Root      4 :     4.442110415761150   Change is   -0.000000071843123
 Root      5 :     4.712795863448735   Change is   -0.000016359758746
 Iteration     9 Dimension   100 NMult    90 NNew     10
 CISAX will form    10 AO SS matrices at one time.
 NMat=    10 NSing=    10 JSym2X= 0.
 Root      1 not converged, maximum delta is    0.000001108850188
 Root      2 not converged, maximum delta is    0.000002216739423
 Root      3 not converged, maximum delta is    0.000004019980333
 Root      4 not converged, maximum delta is    0.000003920607069
 Root      5 not converged, maximum delta is    0.000075931609615
 Excitation Energies [eV] at current iteration:
 Root      1 :     3.516073370789865   Change is   -0.000000000801553
 Root      2 :     4.082614934648107   Change is   -0.000000001416991
 Root      3 :     4.295072388915038   Change is   -0.000000006384555
 Root      4 :     4.442110410957461   Change is   -0.000000004803690
 Root      5 :     4.712794609939476   Change is   -0.000001253509259
 Iteration    10 Dimension   110 NMult   100 NNew     10
 CISAX will form    10 AO SS matrices at one time.
 NMat=    10 NSing=    10 JSym2X= 0.
 Root      1 has converged.
 Root      2 has converged.
 Root      3 not converged, maximum delta is    0.000001186240967
 Root      4 not converged, maximum delta is    0.000001197647396
 Root      5 not converged, maximum delta is    0.000015835145814
 Excitation Energies [eV] at current iteration:
 Root      1 :     3.516073370769266   Change is   -0.000000000020598
 Root      2 :     4.082614934574047   Change is   -0.000000000074060
 Root      3 :     4.295072388564336   Change is   -0.000000000350702
 Root      4 :     4.442110410649662   Change is   -0.000000000307799
 Root      5 :     4.712794512606958   Change is   -0.000000097332517
 Iteration    11 Dimension   116 NMult   110 NNew      6
 CISAX will form     6 AO SS matrices at one time.
 NMat=     6 NSing=     6 JSym2X= 0.
 Root      1 has converged.
 Root      2 has converged.
 Root      3 has converged.
 Root      4 has converged.
 Root      5 not converged, maximum delta is    0.000003732983498
 Excitation Energies [eV] at current iteration:
 Root      1 :     3.516073370768939   Change is   -0.000000000000327
 Root      2 :     4.082614934572677   Change is   -0.000000000001369
 Root      3 :     4.295072388542613   Change is   -0.000000000021724
 Root      4 :     4.442110410624752   Change is   -0.000000000024909
 Root      5 :     4.712794505460925   Change is   -0.000000007146034
 Iteration    12 Dimension   118 NMult   116 NNew      2
 CISAX will form     2 AO SS matrices at one time.
 NMat=     2 NSing=     2 JSym2X= 0.
 Root      1 has converged.
 Root      2 has converged.
 Root      3 has converged.
 Root      4 has converged.
 Root      5 not converged, maximum delta is    0.000001770574725
 Excitation Energies [eV] at current iteration:
 Root      1 :     3.516073370768892   Change is   -0.000000000000047
 Root      2 :     4.082614934572436   Change is   -0.000000000000242
 Root      3 :     4.295072388542421   Change is   -0.000000000000192
 Root      4 :     4.442110410624771   Change is    0.000000000000018
 Root      5 :     4.712794504808365   Change is   -0.000000000652560
 Iteration    13 Dimension   120 NMult   118 NNew      2
 CISAX will form     2 AO SS matrices at one time.
 NMat=     2 NSing=     2 JSym2X= 0.
 Root      1 has converged.
 Root      2 has converged.
 Root      3 has converged.
 Root      4 has converged.
 Root      5 has converged.
 Excitation Energies [eV] at current iteration:
 Root      1 :     3.516073370768892   Change is    0.000000000000000
 Root      2 :     4.082614934572537   Change is    0.000000000000101
 Root      3 :     4.295072388542383   Change is   -0.000000000000038
 Root      4 :     4.442110410624771   Change is    0.000000000000000
 Root      5 :     4.712794504741993   Change is   -0.000000000066372
 Convergence achieved on expansion vectors.
 ***********************************************************************
 Excited states from <AA,BB:AA,BB> singles matrix:
 ***********************************************************************
 
 1PDM for each excited state written to RWF  633
 Ground to excited state transition densities written to RWF  633
 Ground to excited state transition electric dipole moments (Au):
       state          X           Y           Z        Dip. S.      Osc.
         1         2.9476      0.4243      0.0267      8.8691      0.7640
         2        -1.0533     -0.0778      0.1602      1.1413      0.1142
         3        -0.3232      0.0799     -0.0217      0.1113      0.0117
         4         0.2297      0.3171     -0.1696      0.1821      0.0198
         5         0.0753     -0.6353      0.3440      0.5276      0.0609
 Ground to excited state transition velocity dipole moments (Au):
       state          X           Y           Z        Dip. S.      Osc.
         1        -0.3195     -0.0353      0.0147      0.1035      0.5341
         2         0.1315     -0.0027     -0.0235      0.0179      0.0794
         3         0.0435     -0.0035      0.0103      0.0020      0.0085
         4        -0.0290     -0.0434      0.0253      0.0034      0.0138
         5        -0.0002      0.1185     -0.0860      0.0215      0.0826
 Ground to excited state transition magnetic dipole moments (Au):
       state          X           Y           Z
         1        -0.3305      0.2486      0.0767
         2         0.0950     -0.1189      0.4241
         3        -0.0487     -0.4231     -0.1021
         4        -0.0401      0.1177     -0.5293
         5         0.5919     -0.2309      0.6895
 Ground to excited state transition velocity quadrupole moments (Au):
       state          XX          YY          ZZ          XY          XZ          YZ
         1         0.2522     -0.1577     -0.0285      0.0052     -0.0628      0.1442
         2         0.3173      0.1596     -0.0387      0.2919      0.0323     -0.0852
         3         1.9327      0.1180      0.0407      0.1441      0.1833     -0.0392
         4        -0.2657     -0.0754     -0.0335     -0.2488     -0.0471      0.0557
         5         0.0719     -0.3144      0.2083      0.4071      0.2398      0.1879
 <0|del|b> * <b|rxdel|0> + <0|del|b> * <b|delr+rdel|0>
 Rotatory Strengths (R) in cgs (10**-40 erg-esu-cm/Gauss)
       state          XX          YY          ZZ    R(velocity)    E-M Angle
         1       -26.7406    165.7420    397.1252    178.7088       43.63
         2       -38.7827     -4.2823     56.3987      4.4446       87.31
         3         5.7199    -14.2109      0.9554     -2.5118       94.92
         4       -58.1953    -16.3739     -0.6184    -25.0626      123.36
         5      -306.5113    -49.9380      1.9588   -118.1635      129.21
 1/2[<0|r|b>*<b|rxdel|0> + (<0|rxdel|b>*<b|r|0>)*]
 Rotatory Strengths (R) in cgs (10**-40 erg-esu-cm/Gauss)
       state          XX          YY          ZZ     R(length)
         1       688.9587    -74.5878     -1.4473    204.3079
         2        70.7835     -6.5421    -48.0377      5.4012
         3       -11.1272     23.9086     -1.5698      3.7372
         4         6.5147    -26.3968    -63.4693    -27.7838
         5       -31.5190   -103.7486   -167.7139   -100.9939
  1/2[<0|del|b>*<b|r|0> + (<0|r|b>*<b|del|0>)*] (Au)
       state          X           Y           Z        Dip. S.   Osc.(frdel)
         1        -0.9417     -0.0150      0.0004      0.9563      0.6375
         2        -0.1385      0.0002     -0.0038      0.1421      0.0947
         3        -0.0140     -0.0003     -0.0002      0.0146      0.0097
         4        -0.0067     -0.0138     -0.0043      0.0247      0.0165
         5        -0.0000     -0.0753     -0.0296      0.1049      0.0699

 Excitation energies and oscillator strengths:
 
 Excited State   1:      Singlet-A      3.5161 eV  352.62 nm  f=0.7640  <S**2>=0.000
      72 -> 73         0.69780
 This state for optimization and/or second-order correction.
 Total Energy, E(TD-HF/TD-DFT) =  -886.162311114    
 Copying the excited state density for this state as the 1-particle RhoCI density.
 
 Excited State   2:      Singlet-A      4.0826 eV  303.69 nm  f=0.1142  <S**2>=0.000
      70 -> 73         0.15461
      71 -> 73        -0.28987
      72 -> 74         0.60650
 
 Excited State   3:      Singlet-A      4.2951 eV  288.67 nm  f=0.0117  <S**2>=0.000
      71 -> 73         0.60754
      72 -> 74         0.29771
 
 Excited State   4:      Singlet-A      4.4421 eV  279.11 nm  f=0.0198  <S**2>=0.000
      70 -> 73         0.63700
      70 -> 74        -0.10479
      72 -> 74        -0.17073
      72 -> 75         0.20224
 
 Excited State   5:      Singlet-A      4.7128 eV  263.08 nm  f=0.0609  <S**2>=0.000
      68 -> 73        -0.35637
      69 -> 73         0.21887
      70 -> 73        -0.15378
      70 -> 74        -0.14369
      71 -> 73        -0.10526
      72 -> 75         0.48720
 SavETr:  write IOETrn=   770 NScale= 10 NData=  16 NLR=1 NState=    5 LETran=     100.
 The selected state is a singlet.
[...]
    27  H   -0.000000  -0.000000  -0.000000   0.000000   0.000000   0.000000
    28  H    0.000000  -0.000000   0.000000  -0.000000   0.000000  -0.000000
    29  H   -0.000000  -0.000000   0.000000  -0.000000   0.000001   0.000000
    30  H   -0.000000  -0.000000  -0.000014   0.000079   0.001637   0.000784
    31  H    0.000001  -0.000031   0.000041  -0.008340   0.001100   0.025135
    32  H   -0.000000  -0.000000   0.000001  -0.000041   0.000000  -0.000001
    33  H    0.000000  -0.000016   0.000001  -0.000002   0.000000   0.000000
    34  H    0.001125  -0.004785   0.000084  -0.000101   0.000000  -0.000000
               7          8          9         10         11         12
     1  C   -0.000000   0.000000  -0.000000  -0.000000   0.000000  -0.000000
     2  N    0.000000  -0.000000   0.000000  -0.000000  -0.000000  -0.000000
     3  C   -0.000039   0.000000   0.000000  -0.000000   0.000000  -0.000000
     4  C    0.005617  -0.000001  -0.000000   0.000005  -0.000000   0.000000
     5  C   -0.077719   0.001704  -0.000132   0.000210   0.000000  -0.000002
     6  N    0.212880  -0.032758   0.001859   0.002747  -0.000019  -0.000001
     7  N    7.252704   0.165304  -0.107620  -0.039123   0.006319  -0.000414
     8  N    0.165304   6.799672   0.271545  -0.100133   0.002188  -0.000048
     9  N   -0.107620   0.271545   7.095924   0.237089  -0.053488   0.003196
    10  C   -0.039123  -0.100133   0.237089   5.266083   0.353564  -0.061543
    11  C    0.006319   0.002188  -0.053488   0.353564   5.224625   0.441465
    12  C   -0.000414  -0.000048   0.003196  -0.061543   0.441465   5.186084
    13  C    0.003212  -0.000045  -0.000435  -0.034965  -0.072672   0.425018
    14  C   -0.060964   0.001842   0.008059  -0.018036  -0.032387  -0.073572
    15  C    0.107769  -0.075171  -0.039953   0.219745  -0.055882  -0.033789
    16  C   -0.000088   0.000002  -0.000000  -0.000000  -0.000000   0.000000
    17  C    0.000059  -0.000048   0.000000   0.000000   0.000000  -0.000000
    18  C   -0.000000  -0.000000   0.000000  -0.000000  -0.000000   0.000000
    19  C   -0.000000   0.000000  -0.000000   0.000000  -0.000000   0.000000
    20  C    0.000000  -0.000000  -0.000000   0.000000   0.000000  -0.000000
    21  C   -0.000000   0.000000   0.000000  -0.000000   0.000000   0.000000
    22  H    0.000000  -0.000000   0.000000  -0.000000  -0.000000   0.000000
    23  H    0.000000   0.000000  -0.000000  -0.000000   0.000000   0.000000
    24  H    0.000000   0.000000  -0.000000  -0.000000   0.000000   0.000000
    25  H    0.000000   0.000000  -0.000000   0.000000  -0.000000  -0.000000
    26  H   -0.007369  -0.000106   0.000004  -0.000237  -0.000001   0.000005
    27  H    0.000007  -0.000056  -0.001352  -0.046896   0.384523  -0.035488
    28  H   -0.000000   0.000000  -0.000011   0.004196  -0.037865   0.389963
    29  H   -0.000010   0.000000  -0.000001  -0.000222   0.003666  -0.037893
    30  H   -0.005052  -0.000002  -0.000016   0.003118  -0.000222   0.003304
    31  H   -0.000521   0.000367   0.000001  -0.000001  -0.000000   0.000000
    32  H   -0.000000  -0.000000   0.000000   0.000000   0.000000  -0.000000
    33  H   -0.000000   0.000000  -0.000000  -0.000000  -0.000000   0.000000
    34  H    0.000000  -0.000000  -0.000000   0.000000   0.000000   0.000000
              13         14         15         16         17         18
     1  C   -0.000000  -0.000000   0.000000   0.002085  -0.000050  -0.000005
     2  N    0.000000   0.000000  -0.000000  -0.063139   0.005252  -0.000225
     3  C   -0.000000  -0.000006   0.000005  -0.116407   0.002774  -0.000087
     4  C   -0.000001   0.000126  -0.000440   0.388477  -0.039209   0.003644
     5  C    0.000130  -0.004299  -0.006613  -0.048419  -0.002173   0.000052
     6  N    0.000013   0.001040  -0.027463  -0.003608  -0.006278   0.000213
     7  N    0.003212  -0.060964   0.107769  -0.000088   0.000059  -0.000000
     8  N   -0.000045   0.001842  -0.075171   0.000002  -0.000048  -0.000000
     9  N   -0.000435   0.008059  -0.039953  -0.000000   0.000000   0.000000
    10  C   -0.034965  -0.018036   0.219745  -0.000000   0.000000  -0.000000
    11  C   -0.072672  -0.032387  -0.055882  -0.000000   0.000000  -0.000000
    12  C    0.425018  -0.073572  -0.033789   0.000000  -0.000000   0.000000
    13  C    5.170202   0.430991  -0.053826   0.000000   0.000000   0.000000
    14  C    0.430991   5.320576   0.260991  -0.000000   0.000000   0.000000
    15  C   -0.053826   0.260991   5.349131   0.000014  -0.000007   0.000000
    16  C    0.000000  -0.000000   0.000014   5.201269   0.441472  -0.089335
    17  C    0.000000   0.000000  -0.000007   0.441472   5.237796   0.438248
    18  C    0.000000   0.000000   0.000000  -0.089335   0.438248   5.192490
    19  C    0.000000  -0.000000   0.000000  -0.025816  -0.079075   0.445376
    20  C    0.000000   0.000000  -0.000000  -0.044731  -0.028115  -0.079112
    21  C   -0.000000  -0.000000   0.000000   0.394218  -0.051974  -0.029225
    22  H    0.000000   0.000000  -0.000000   0.000360  -0.000002   0.000003
    23  H   -0.000000  -0.000000   0.000000  -0.000087   0.000001   0.000000
    24  H   -0.000000  -0.000000   0.000000  -0.000087   0.000001   0.000000
    25  H    0.000000  -0.000001  -0.000000   0.002291  -0.000048   0.000001
    26  H    0.000082   0.003606   0.004075   0.004335   0.000048   0.000001
    27  H    0.003606  -0.000503   0.005047  -0.000000   0.000000  -0.000000
    28  H   -0.039564   0.003864  -0.000262   0.000000   0.000000   0.000000
    29  H    0.388493  -0.037605   0.004305  -0.000000   0.000000  -0.000000
    30  H   -0.032450   0.386307  -0.052484  -0.000000  -0.000000   0.000000
    31  H    0.000000  -0.000000   0.000048  -0.040752   0.366588  -0.030509
    32  H   -0.000000  -0.000000  -0.000000   0.004415  -0.039365   0.390044
    33  H    0.000000  -0.000000   0.000000  -0.000163   0.003767  -0.039872
    34  H   -0.000000   0.000000  -0.000000   0.003608  -0.000266   0.003411
              19         20         21         22         23         24
     1  C    0.000163  -0.000485  -0.038649   0.365119   0.364177   0.364175
     2  N    0.003222  -0.047734   0.233422  -0.025087  -0.034303  -0.034310
     3  C   -0.000209   0.003359  -0.128939   0.002469  -0.001617  -0.001616
     4  C    0.000212   0.004268  -0.112067  -0.000186   0.000148   0.000148
     5  C    0.000003  -0.000130   0.004082   0.000000   0.000000   0.000000
     6  N    0.000000  -0.000001   0.000151  -0.000000  -0.000000  -0.000000
     7  N   -0.000000   0.000000  -0.000000   0.000000   0.000000   0.000000
     8  N    0.000000  -0.000000   0.000000  -0.000000   0.000000   0.000000
     9  N   -0.000000  -0.000000   0.000000   0.000000  -0.000000  -0.000000
    10  C    0.000000   0.000000  -0.000000  -0.000000  -0.000000  -0.000000
    11  C   -0.000000   0.000000   0.000000  -0.000000   0.000000   0.000000
    12  C    0.000000  -0.000000   0.000000   0.000000   0.000000   0.000000
    13  C    0.000000   0.000000  -0.000000   0.000000  -0.000000  -0.000000
    14  C   -0.000000   0.000000  -0.000000   0.000000  -0.000000  -0.000000
    15  C    0.000000  -0.000000   0.000000  -0.000000   0.000000   0.000000
    16  C   -0.025816  -0.044731   0.394218   0.000360  -0.000087  -0.000087
    17  C   -0.079075  -0.028115  -0.051974  -0.000002   0.000001   0.000001
    18  C    0.445376  -0.079112  -0.029225   0.000003   0.000000   0.000000
    19  C    5.166743   0.449814  -0.071920  -0.000045  -0.000001  -0.000001
    20  C    0.449814   5.208958   0.383871   0.001780   0.000064   0.000064
    21  C   -0.071920   0.383871   5.097079  -0.004518   0.001335   0.001334
    22  H   -0.000045   0.001780  -0.004518   0.459351  -0.023618  -0.023626
    23  H   -0.000001   0.000064   0.001335  -0.023618   0.480668  -0.030724
    24  H   -0.000001   0.000064   0.001334  -0.023626  -0.030724   0.480687
    25  H    0.000001  -0.000037   0.003121   0.000003   0.000400   0.000400
    26  H    0.000000  -0.000000  -0.000091   0.000000   0.000000   0.000000
    27  H   -0.000000   0.000000  -0.000000   0.000000  -0.000000  -0.000000
    28  H    0.000000   0.000000  -0.000000   0.000000  -0.000000   0.000000
    29  H   -0.000000   0.000000   0.000000  -0.000000   0.000000   0.000000
    30  H   -0.000000   0.000000  -0.000000   0.000000  -0.000000  -0.000000
    31  H    0.003217  -0.000250   0.004456   0.000000  -0.000000  -0.000000
    32  H   -0.041000   0.003935  -0.000156  -0.000000  -0.000000  -0.000000
    33  H    0.390591  -0.040004   0.004250   0.000000  -0.000000  -0.000000
    34  H   -0.034008   0.390426  -0.049876   0.004909  -0.000047  -0.000047
              25         26         27         28         29         30
     1  C   -0.000261   0.000000  -0.000000   0.000000  -0.000000  -0.000000
     2  N   -0.032772   0.000043  -0.000000  -0.000000  -0.000000  -0.000000
     3  C    0.379007  -0.000262  -0.000000   0.000000   0.000000  -0.000014
     4  C   -0.027113  -0.063123   0.000000  -0.000000  -0.000000   0.000079
     5  C   -0.000848   0.329106   0.000000   0.000000   0.000001   0.001637
     6  N    0.000006  -0.052182   0.000000  -0.000000   0.000000   0.000784
     7  N    0.000000  -0.007369   0.000007  -0.000000  -0.000010  -0.005052
     8  N    0.000000  -0.000106  -0.000056   0.000000   0.000000  -0.000002
     9  N   -0.000000   0.000004  -0.001352  -0.000011  -0.000001  -0.000016
    10  C    0.000000  -0.000237  -0.046896   0.004196  -0.000222   0.003118
    11  C   -0.000000  -0.000001   0.384523  -0.037865   0.003666  -0.000222
    12  C   -0.000000   0.000005  -0.035488   0.389963  -0.037893   0.003304
    13  C    0.000000   0.000082   0.003606  -0.039564   0.388493  -0.032450
    14  C   -0.000001   0.003606  -0.000503   0.003864  -0.037605   0.386307
    15  C   -0.000000   0.004075   0.005047  -0.000262   0.004305  -0.052484
    16  C    0.002291   0.004335  -0.000000   0.000000  -0.000000  -0.000000
    17  C   -0.000048   0.000048   0.000000   0.000000   0.000000  -0.000000
    18  C    0.000001   0.000001  -0.000000   0.000000  -0.000000   0.000000
    19  C    0.000001   0.000000  -0.000000   0.000000  -0.000000  -0.000000
    20  C   -0.000037  -0.000000   0.000000   0.000000   0.000000   0.000000
    21  C    0.003121  -0.000091  -0.000000  -0.000000   0.000000  -0.000000
    22  H    0.000003   0.000000   0.000000   0.000000  -0.000000   0.000000
    23  H    0.000400   0.000000  -0.000000  -0.000000   0.000000  -0.000000
    24  H    0.000400   0.000000  -0.000000   0.000000   0.000000  -0.000000
    25  H    0.418107   0.001272   0.000000   0.000000  -0.000000   0.000003
    26  H    0.001272   0.525602  -0.000000   0.000000  -0.000016   0.007395
    27  H    0.000000  -0.000000   0.468302  -0.003618  -0.000029   0.000002
    28  H    0.000000   0.000000  -0.003618   0.465894  -0.003380  -0.000036
    29  H   -0.000000  -0.000016  -0.000029  -0.003380   0.458483  -0.003046
    30  H    0.000003   0.007395   0.000002  -0.000036  -0.003046   0.453083
    31  H   -0.000000   0.000126  -0.000000   0.000000  -0.000000  -0.000000
    32  H   -0.000000  -0.000000   0.000000   0.000000   0.000000  -0.000000
    33  H   -0.000000   0.000000   0.000000   0.000000  -0.000000  -0.000000
    34  H    0.000000  -0.000000   0.000000   0.000000   0.000000   0.000000
              31         32         33         34
     1  C    0.000001  -0.000000   0.000000   0.001125
     2  N   -0.000031  -0.000000  -0.000016  -0.004785
     3  C    0.000041   0.000001   0.000001   0.000084
     4  C   -0.008340  -0.000041  -0.000002  -0.000101
     5  C    0.001100   0.000000   0.000000   0.000000
     6  N    0.025135  -0.000001   0.000000  -0.000000
     7  N   -0.000521  -0.000000  -0.000000   0.000000
     8  N    0.000367  -0.000000   0.000000  -0.000000
     9  N    0.000001   0.000000  -0.000000  -0.000000
    10  C   -0.000001   0.000000  -0.000000   0.000000
    11  C   -0.000000   0.000000  -0.000000   0.000000
    12  C    0.000000  -0.000000   0.000000   0.000000
    13  C    0.000000  -0.000000   0.000000  -0.000000
    14  C   -0.000000  -0.000000  -0.000000   0.000000
    15  C    0.000048  -0.000000   0.000000  -0.000000
    16  C   -0.040752   0.004415  -0.000163   0.003608
    17  C    0.366588  -0.039365   0.003767  -0.000266
    18  C   -0.030509   0.390044  -0.039872   0.003411
    19  C    0.003217  -0.041000   0.390591  -0.034008
    20  C   -0.000250   0.003935  -0.040004   0.390426
    21  C    0.004456  -0.000156   0.004250  -0.049876
    22  H    0.000000  -0.000000   0.000000   0.004909
    23  H   -0.000000  -0.000000  -0.000000  -0.000047
    24  H   -0.000000  -0.000000  -0.000000  -0.000047
    25  H   -0.000000  -0.000000  -0.000000   0.000000
    26  H    0.000126  -0.000000   0.000000  -0.000000
    27  H   -0.000000   0.000000   0.000000   0.000000
    28  H    0.000000   0.000000   0.000000   0.000000
    29  H   -0.000000   0.000000  -0.000000   0.000000
    30  H   -0.000000  -0.000000  -0.000000   0.000000
    31  H    0.473771  -0.003420  -0.000034   0.000001
    32  H   -0.003420   0.489097  -0.003652  -0.000038
    33  H   -0.000034  -0.003652   0.484168  -0.003575
    34  H    0.000001  -0.000038  -0.003575   0.476736
 Mulliken charges:
               1
     1  C   -0.397253
     2  N   -0.770663
     3  C    0.140474
     4  C   -0.089187
     5  C    0.038216
     6  N   -0.334185
     7  N   -0.454951
     8  N   -0.034256
     9  N   -0.414670
    10  C    0.214401
    11  C   -0.163816
    12  C   -0.206284
    13  C   -0.187788
    14  C   -0.190027
    15  C    0.394761
    16  C   -0.009912
    17  C   -0.249396
    18  C   -0.205112
    19  C   -0.207268
    20  C   -0.205937
    21  C    0.360093
    22  H    0.243088
    23  H    0.243603
    24  H    0.243602
    25  H    0.256470
    26  H    0.247688
    27  H    0.226456
    28  H    0.220819
    29  H    0.227253
    30  H    0.237611
    31  H    0.209007
    32  H    0.200181
    33  H    0.204539
    34  H    0.212443
 Sum of Mulliken charges =  -0.00000
 Mulliken charges with hydrogens summed into heavy atoms:
               1
     1  C    0.333040
     2  N   -0.770663
     3  C    0.396944
     4  C   -0.089187
     5  C    0.285904
     6  N   -0.334185
     7  N   -0.454951
     8  N   -0.034256
     9  N   -0.414670
    10  C    0.214401
    11  C    0.062641
    12  C    0.014536
    13  C    0.039465
    14  C    0.047584
    15  C    0.394761
    16  C   -0.009912
    17  C   -0.040389
    18  C   -0.004931
    19  C   -0.002729
    20  C    0.006506
    21  C    0.360093
 Electronic spatial extent (au):  <R**2>=           8271.5739
 Charge=             -0.0000 electrons
 Dipole moment (field-independent basis, Debye):
    X=              4.2705    Y=             10.5361    Z=              0.0033  Tot=             11.3687
 Quadrupole moment (field-independent basis, Debye-Ang):
   XX=            -82.4932   YY=           -108.2797   ZZ=           -128.7203
   XY=             -2.6322   XZ=             -0.0189   YZ=             -0.0131
 Traceless Quadrupole moment (field-independent basis, Debye-Ang):
   XX=             24.0045   YY=             -1.7819   ZZ=            -22.2226
   XY=             -2.6322   XZ=             -0.0189   YZ=             -0.0131
 Octapole moment (field-independent basis, Debye-Ang**2):
  XXX=             62.7440  YYY=             79.1667  ZZZ=             -0.0319  XYY=             68.6460
  XXY=            120.5458  XXZ=              0.0800  XZZ=             -0.2039  YZZ=              2.7107
  YYZ=              0.0499  XYZ=             -0.0590
 Hexadecapole moment (field-independent basis, Debye-Ang**3):
 XXXX=          -7544.7516 YYYY=          -1709.7876 ZZZZ=           -132.4377 XXXY=             15.4358
 XXXZ=             -0.2887 YYYX=            -43.7454 YYYZ=             -0.1063 ZZZX=             -0.0058
 ZZZY=              0.0037 XXYY=          -1624.5907 XXZZ=          -1736.4050 YYZZ=           -350.2433
 XXYZ=             -0.0375 YYXZ=             -0.1936 ZZXY=             52.4079
 N-N= 1.464917690752D+03 E-N=-4.986523795654D+03  KE= 8.785415805129D+02
 No NMR shielding tensors so no spin-rotation constants.
 Leave Link  601 at Tue Jan 30 22:46:42 2024, MaxMem=  1073741824 cpu:               1.0 elap:               0.2
 (Enter /share/software/user/restricted/gaussian/g16.B01/l9999.exe)
 Electronic transition elements 
                 1             2             3             4             5 
      1  -0.886192D+03 -0.886154D+03 -0.886150D+03 -0.886146D+03 -0.886144D+03
      2  -0.313869D+01  0.195725D+01 -0.976141D+00  0.213727D-03 -0.152598D-01
      3   0.804831D+00 -0.225393D+00  0.465358D+00  0.431429D-01 -0.349596D+00
      4  -0.166097D+00 -0.201243D-01 -0.147363D+00  0.106028D+00  0.154972D+00
      5   0.270506D+00 -0.228892D+00  0.116655D+00 -0.197907D-02 -0.189914D-02
      6  -0.602291D-01  0.224543D-01 -0.517681D-01 -0.191208D-01  0.419093D-01
      7   0.101931D-01  0.406096D-02  0.159591D-01 -0.438406D-01 -0.177204D-01
      8  -0.166401D-01 -0.917438D-02  0.336161D-01  0.592371D+00  0.106767D-01
      9  -0.124713D+00 -0.678779D-01  0.249715D+00  0.494958D+00  0.139659D+00
     10  -0.280285D+00 -0.151883D+00  0.562150D+00 -0.249926D+00  0.332632D+00
     11   0.444373D+00  0.326099D+00  0.233209D+00 -0.677907D-01 -0.155433D+01
     12  -0.900979D-01  0.244449D+00 -0.116715D+00  0.215389D+00 -0.196242D+00
     13  -0.315936D-01  0.438341D-01 -0.154895D-01 -0.175467D+00 -0.210492D-01
     14  -0.687855D-01 -0.331047D+00  0.261215D+00 -0.137775D+00  0.406898D+00
     15   0.228523D-02  0.128450D+00 -0.130741D+00 -0.365487D+00 -0.794734D-01
     16   0.374481D-01 -0.809698D-01  0.306874D-01  0.206886D+00  0.567254D-01
 1\1\GINC-SH02-14N05\FTS\RB3LYP TD-FC\3-21G*\C16H13N5\JENNXU23\30-Jan-2
 024\0\\#p b3lyp/3-21G* opt=(calcfc,ts,noeigen,maxcycle=1000) scrf=(sol
 vent=water) td=(singlets,nstates=5)\\5_top\\0,1\C,-4.1137060398,2.4793
 887646,-0.8644756492\N,-3.1013967433,1.4744537319,-0.4784762826\C,-1.7
 5703329,1.6305952069,-0.6303684793\C,-1.0804568333,0.4769857654,-0.157
 6664428\C,0.3293457245,0.2951377509,-0.1628374581\N,0.8246719048,-0.84
 61993202,0.3156761319\N,2.1389275158,-1.0809304897,0.3395648278\N,2.54
 6964837,-2.4539417919,0.928503132\N,3.8878336197,-2.4548548084,0.84617
 11703\C,4.3680107091,-1.2887927005,0.2949359313\C,5.7010015405,-0.9156
 904958,0.0455151421\C,5.9515465666,0.3340076445,-0.5294685754\C,4.9060
 457066,1.2055590493,-0.8550776514\C,3.5580003776,0.8434215314,-0.60952
 78536\C,3.3023241558,-0.39337332,-0.0398411598\C,-2.1165376428,-0.4316
 484179,0.3106486309\C,-2.0845644109,-1.7085673108,0.8776890725\C,-3.29
 83218856,-2.3193918427,1.2242092387\C,-4.5194101886,-1.6680933257,1.00
 87058321\C,-4.5696873662,-0.3847342547,0.4398762402\C,-3.366100169,0.2
 165411064,0.0982851729\H,-5.1042764186,2.0927674338,-0.6319095364\H,-4
 .0430522463,2.6773611366,-1.9365814743\H,-3.9437985882,3.4033521332,-0
 .306779113\H,-1.3383015597,2.5275414065,-1.0557366293\H,0.9364720645,1
 .0977603761,-0.5575867781\H,6.5067783619,-1.5924239412,0.2986304261\H,
 6.9751808841,0.6320089607,-0.7261554504\H,5.1189172766,2.1694675124,-1
 .2998425133\H,2.7750802239,1.5375211646,-0.8720341572\H,-1.1324051785,
 -2.1943041883,1.0358067458\H,-3.2914443583,-3.3085684075,1.6645824294\
 H,-5.4455549013,-2.1572692039,1.2833622282\H,-5.5210536486,0.104913143
 9,0.2798772528\\Version=ES64L-G16RevB.01\State=1-A\HF=-886.293256\RMSD
 =6.829e-09\RMSF=5.221e-06\Dipole=-5.8884186,4.3137313,-1.5645572\PG=C0
 1 [X(C16H13N5)]\\@


 ABALONE: AN EXPRESSION OF DISBELIEF.
 Job cpu time:       0 days 13 hours 15 minutes 29.4 seconds.
 Elapsed time:       0 days  1 hours 45 minutes 41.5 seconds.
 File lengths (MBytes):  RWF=    906 Int=      0 D2E=      0 Chk=     24 Scr=      1
 Normal termination of Gaussian 16 at Tue Jan 30 22:46:43 2024.
